<VTKFile type="HyperTreeGrid" version="1.0" byte_order="LittleEndian" header_type="UInt32">
  <HyperTreeGrid BranchFactor="2" TransposedRootIndexing="0" Dimensions="2 2 2">
    <Grid>
      <DataArray type="Float64" Name="XCoordinates" NumberOfTuples="2" format="ascii" RangeMin="-10" RangeMax="10">
        -10 10
      </DataArray>
      <DataArray type="Float64" Name="YCoordinates" NumberOfTuples="2" format="ascii" RangeMin="-10" RangeMax="10">
        -10 10
      </DataArray>
      <DataArray type="Float64" Name="ZCoordinates" NumberOfTuples="2" format="ascii" RangeMin="-10" RangeMax="10">
        -10 10
      </DataArray>
    </Grid>
    <Trees>
      <Tree Index="0" NumberOfLevels="5" NumberOfVertices="2889">
        <DataArray type="Bit" Name="Descriptor" NumberOfTuples="515" format="ascii" RangeMin="0" RangeMax="1">
          1 1 1 1 1 1
          1 1 1 0 1 1
          1 1 1 1 1 1
          0 1 1 1 1 1
          1 1 1 0 1 1
          1 1 1 1 1 1
          0 1 1 1 1 1
          1 1 1 0 1 1
          1 1 1 1 1 1
          0 1 1 1 1 1
          1 1 1 0 1 1
          1 1 1 1 1 1
          0 0 0 0 0 0
          0 1 1 0 0 0
          0 0 1 0 1 0
          1 1 1 1 1 1
          1 0 0 0 1 0
          0 0 1 1 1 1
          1 1 1 1 1 1
          1 1 1 1 1 1
          1 1 1 1 1 1
          1 1 1 0 0 0
          0 0 0 1 1 1
          0 1 1 1 1 1
          1 0 0 0 0 1
          0 1 0 1 1 1
          1 1 1 1 1 0
          0 1 0 0 0 1
          0 1 1 1 1 1
          1 1 1 1 1 1
          1 1 1 1 1 0
          0 0 0 0 1 0
          1 1 1 0 1 1
          1 1 1 0 0 0
          0 1 1 0 0 1
          1 1 1 1 1 1
          1 1 1 1 1 1
          1 1 1 0 1 0
          0 0 1 0 0 1
          1 1 1 1 1 1
          1 1 1 1 0 1
          1 1 1 0 0 0
          0 1 0 1 0 0
          0 0 0 1 1 0
          0 1 1 1 1 1
          1 1 1 1 1 1
          1 1 1 1 1 1
          1 1 1 1 1 1
          1 1 0 0 0 1
          0 0 0 0 0 0
          1 0 0 0 1 1
          1 1 1 1 1 1
          1 1 1 1 1 1
          1 1 1 1 1 1
          1 1 1 1 1 0
          0 1 1 0 0 0
          0 0 1 0 1 0
          0 0 0 1 1 1
          1 0 1 1 1 1
          1 1 1 1 1 1
          1 0 0 1 0 0
          0 1 0 1 1 1
          1 1 1 1 1 1
          1 1 1 1 1 1
          1 0 0 1 1 0
          0 0 0 1 1 1
          1 1 0 1 1 1
          0 1 0 0 0 0
          0 1 1 1 1 1
          1 1 1 1 1 1
          1 1 1 1 1 0
          1 0 0 0 1 0
          0 1 1 1 1 1
          1 1 1 0 1 0
          1 0 0 0 0 1
          1 1 1 1 1 0
          1 1 1 0 0 0
          0 0 0 1 1 1
          1 1 1 1 1 1
          1 1 1 1 1 1
          1 1 1 1 1 1
          1 1 1 1 0 0
          0 1 0 0 0 1
          1 1 1 1 1 1
          0 1 0 1 0 0
          0 0 0 1 1
        </DataArray>
        <DataArray type="Int64" Name="NbVerticesByLevel" NumberOfTuples="5" format="ascii" RangeMin="1" RangeMax="2368">
          1 8 64 448 2368
        </DataArray>
        <DataArray type="Bit" Name="Mask" NumberOfTuples="2889" format="ascii" RangeMin="0" RangeMax="1">
          0 0 0 0 0 0
          0 0 0 1 0 0
          0 0 0 0 0 0
          1 0 0 0 0 0
          0 0 0 1 0 0
          0 0 0 0 0 0
          1 0 0 0 0 0
          0 0 0 1 0 0
          0 0 0 0 0 0
          1 0 0 0 0 0
          0 0 0 1 0 0
          0 0 0 0 0 0
          1 1 1 1 1 1
          1 0 0 1 1 1
          1 1 0 1 0 1
          0 0 0 0 0 0
          0 1 1 1 0 1
          1 1 0 0 0 0
          0 0 0 0 0 0
          0 0 0 0 0 0
          0 0 0 0 0 0
          0 0 0 1 1 1
          1 1 1 0 0 0
          1 0 0 0 0 0
          0 1 1 1 1 0
          1 0 1 0 0 0
          0 0 0 0 0 1
          1 0 1 1 1 0
          1 0 0 0 0 0
          0 0 0 0 0 0
          0 0 0 0 0 1
          1 1 1 1 0 1
          0 0 0 1 0 0
          0 0 0 1 1 1
          1 0 0 1 1 0
          0 0 0 0 0 0
          0 0 0 0 0 0
          0 0 0 1 0 1
          1 1 0 1 1 0
          0 0 0 0 0 0
          0 0 0 0 1 0
          0 0 0 1 1 1
          1 0 1 0 1 1
          1 1 1 0 0 1
          1 0 0 0 0 0
          0 0 0 0 0 0
          0 0 0 0 0 0
          0 0 0 0 0 0
          0 0 1 1 1 0
          1 1 1 1 1 1
          0 1 1 1 0 0
          0 0 0 0 0 0
          0 0 0 0 0 0
          0 0 0 0 0 0
          0 0 0 0 0 1
          1 0 0 1 1 1
          1 1 0 1 0 1
          1 1 1 0 0 0
          0 1 0 0 0 0
          0 0 0 0 0 0
          0 1 1 0 1 1
          1 0 1 0 0 0
          0 0 0 0 0 0
          0 0 0 0 0 0
          0 1 1 0 0 1
          1 1 1 0 0 0
          0 0 1 0 0 0
          1 0 1 1 1 1
          1 0 0 0 0 0
          0 0 0 0 0 0
          0 0 0 0 0 1
          0 1 1 1 0 1
          1 0 0 0 0 0
          0 0 0 1 0 1
          0 1 1 1 1 0
          0 0 0 0 0 1
          0 0 0 1 1 1
          1 1 1 0 0 0
          0 0 0 0 0 0
          0 0 0 0 0 0
          0 0 0 0 0 0
          0 0 0 0 1 1
          1 0 1 1 1 0
          0 0 0 0 0 0
          1 0 1 0 1 1
          1 1 1 0 0 1
          1 1 1 1 1 1
          1 1 1 1 1 0
          0 1 1 0 0 0
          0 0 0 1 1 1
          1 1 0 1 0 1
          0 1 0 0 0 0
          0 1 1 1 1 1
          1 0 0 1 1 1
          1 1 0 1 0 1
          1 1 1 0 0 0
          0 1 0 0 0 0
          0 0 0 0 0 0
          0 0 0 0 0 0
          0 0 0 0 0 0
          0 0 0 0 0 0
          0 0 0 1 1 1
          0 1 1 1 0 1
          0 0 0 1 0 0
          0 1 1 1 1 1
          1 1 0 1 1 1
          1 1 1 0 0 1
          0 0 0 0 0 0
          0 0 0 0 0 0
          0 0 0 1 1 1
          0 1 1 1 0 1
          1 0 0 1 1 0
          0 0 0 0 0 0
          0 0 0 0 0 0
          0 0 0 0 0 1
          1 1 1 1 1 1
          0 1 0 0 0 0
          0 0 0 1 1 1
          1 1 0 1 0 0
          0 0 0 0 0 0
          0 1 1 1 0 1
          1 1 0 0 0 0
          0 0 0 0 0 1
          0 1 0 1 0 1
          0 0 0 0 0 0
          0 0 0 0 0 0
          0 0 0 0 0 0
          0 0 0 0 0 0
          0 0 0 0 0 0
          0 0 0 0 0 0
          0 0 0 0 0 0
          0 0 0 0 0 0
          0 0 0 0 0 0
          0 0 0 0 0 0
          0 0 0 0 0 0
          0 0 0 0 0 0
          0 1 1 0 0 0
          0 0 0 1 1 1
          1 1 1 0 0 1
          1 1 1 1 1 0
          0 1 1 1 1 0
          0 0 0 1 1 1
          1 0 1 0 1 0
          0 0 0 0 0 0
          0 0 1 0 0 0
          0 0 0 0 0 0
          0 0 0 0 0 0
          0 0 0 0 0 0
          0 1 1 1 1 0
          1 0 1 0 1 0
          1 0 0 0 0 1
          1 1 1 1 1 0
          0 1 1 1 1 1
          1 0 1 0 0 0
          0 0 0 0 0 0
          1 0 0 0 0 0
          0 1 1 0 0 1
          1 0 0 1 1 0
          1 1 1 0 1 0
          0 0 0 0 0 0
          0 0 0 0 0 0
          0 0 0 1 1 0
          1 1 1 0 1 0
          1 0 0 0 1 0
          0 0 0 0 0 0
          0 0 0 0 0 0
          0 0 0 0 0 0
          0 0 0 0 0 0
          0 0 0 0 0 0
          0 0 0 0 0 0
          0 0 0 0 0 0
          0 0 0 0 0 0
          0 0 0 0 0 0
          0 0 0 0 0 0
          0 0 0 0 0 0
          1 0 0 0 0 0
          0 1 1 1 1 1
          1 0 1 0 0 0
          0 0 0 0 0 1
          1 1 1 0 1 0
          1 0 0 0 0 0
          0 0 0 1 1 0
          1 1 1 0 1 0
          0 0 0 0 0 0
          0 0 1 0 1 0
          1 0 1 1 0 1
          0 0 0 0 0 1
          1 1 1 1 0 1
          0 1 1 1 1 1
          0 1 0 1 1 1
          1 0 0 0 0 1
          1 1 1 0 0 1
          1 0 0 0 0 0
          0 0 0 0 0 0
          0 0 0 0 0 0
          0 1 0 0 0 0
          0 0 0 0 0 0
          0 0 0 1 1 1
          1 0 0 1 1 0
          0 1 1 0 0 0
          0 1 1 1 1 1
          0 1 0 0 0 0
          0 0 0 0 0 1
          1 1 1 1 0 1
          1 0 0 1 0 0
          0 0 0 1 0 1
          0 1 0 1 0 0
          0 0 0 0 0 0
          0 1 0 1 1 1
          0 1 1 0 0 0
          0 0 0 0 0 0
          0 0 0 0 0 0
          0 0 0 0 0 0
          0 0 0 0 0 0
          0 0 0 0 0 0
          0 0 0 0 0 0
          0 0 0 0 0 0
          0 0 0 0 0 0
          0 0 0 0 0 0
          0 0 0 0 0 0
          0 0 0 0 0 0
          0 0 0 1 0 1
          1 1 0 1 1 0
          0 1 0 0 0 1
          0 0 0 1 0 0
          0 0 0 0 0 0
          0 0 0 0 0 1
          1 1 1 1 0 1
          1 1 1 1 1 0
          0 1 1 0 0 0
          0 0 0 0 0 0
          0 0 0 0 0 0
          0 1 0 1 1 1
          0 1 1 0 0 1
          1 0 0 1 1 1
          1 1 1 0 0 0
          0 1 1 1 1 0
          1 0 1 1 1 1
          1 0 0 1 1 0
          0 0 0 0 0 0
          0 0 0 0 0 0
          0 0 0 0 0 0
          0 0 0 0 0 0
          0 0 1 0 0 0
          0 0 1 0 1 0
          0 0 0 1 1 1
          1 0 1 0 1 0
          0 1 1 0 0 0
          0 1 1 1 1 0
          0 1 1 0 0 0
          0 0 0 0 0 0
          0 0 0 0 0 0
          0 0 0 0 0 0
          0 0 0 0 0 0
          0 0 0 0 0 0
          0 0 0 0 0 0
          0 0 0 0 0 0
          0 0 0 0 0 0
          0 0 0 0 0 0
          0 0 0 0 0 0
          0 0 0 0 0 0
          0 0 0 1 1 1
          1 0 1 0 1 0
          0 0 1 0 0 0
          0 1 1 1 1 0
          1 1 1 0 0 0
          0 0 0 0 0 0
          1 0 1 0 1 0
          1 0 0 0 0 0
          0 0 0 0 1 1
          1 0 1 1 1 0
          0 0 0 0 0 0
          0 0 0 0 1 0
          0 0 0 1 1 1
          1 0 0 1 1 1
          1 1 1 0 1 1
          1 0 0 0 0 0
          0 0 0 0 0 0
          0 0 0 0 0 0
          0 1 1 0 0 1
          1 0 1 1 1 0
          1 1 1 0 1 1
          1 0 1 1 1 0
          0 0 1 0 0 0
          1 1 0 0 0 1
          0 0 0 1 1 1
          0 1 1 1 0 1
          1 1 0 1 1 1
          0 1 1 0 0 1
          1 0 0 0 0 0
          0 0 0 0 0 0
          0 0 0 0 0 0
          0 1 1 1 0 1
          1 1 1 1 1 0
          0 1 1 1 1 0
          0 0 0 1 0 0
          0 0 0 0 0 0
          0 0 0 1 1 1
          0 1 1 1 0 0
          0 0 0 0 0 0
          0 1 0 1 0 1
          0 1 0 0 0 0
          0 0 0 0 0 1
          1 1 0 1 1 1
          1 0 0 0 0 1
          0 0 0 1 0 1
          0 1 1 1 1 0
          0 0 0 0 0 0
          0 0 0 0 0 0
          0 0 0 0 0 0
          0 0 0 0 0 0
          0 0 0 0 0 0
          0 0 0 0 0 0
          0 0 0 0 0 0
          0 0 0 0 0 0
          0 0 0 0 0 0
          0 0 0 0 0 0
          0 0 0 0 0 0
          0 0 0 0 0 1
          1 0 0 1 1 1
          1 0 0 0 0 1
          1 0 0 1 0 1
          0 1 1 1 1 0
          0 0 0 1 0 1
          0 0 0 0 0 1
          0 0 0 0 0 0
          0 0 0 0 0 0
          0 0 0 0 0 0
          0 0 0 0 0 0
          0 0 0 1 1 0
          0 1 1 1 1 1
          0 1 0 1 1 1
          1 0 0 0 0 1
          1 1 1 1 1 0
          0 1 1 0 0 1
          1 0 1 1 1 0
          1 0 0 0 0 0
          0 0 0 0 0 0
          0 0 0 0 0 1
          1 0 0 1 1 1
          1 1 1 0 1 1
          1 1 1 0 0 0
          0 0 0 0 0 0
          0 0 0 0 1 0
          0 0 1 0 0 0
          1 0 0 1 1 0
          1 1 1 0 1 0
          0 0 0 0 0 0
          0 0 0 0 0 0
          0 0 0 0 0 0
          0 0 0 0 0 0
          0 0 0 0 0 0
          0 0 0 0 0 0
          0 0 0 0 0 0
          0 0 0 0 0 0
          0 0 0 0 0 0
          0 0 0 0 0 0
          0 0 0 0 0 0
          0 0 0 0 0 1
          1 0 1 1 1 0
          1 0 0 0 0 0
          0 0 0 0 1 0
          1 0 1 0 1 0
          0 0 0 0 1 0
          0 1 1 0 1 1
          1 1 1 0 0 0
          0 0 0 0 0 0
          1 0 1 1 1 1
          1 0 0 0 0 1
          1 0 0 1 1 0
          0 1 1 1 1 0
          0 0 0 0 0 0
          0 0 0 0 0 0
          1 0 0 0 0 0
          0 0 0 0 0 0
          0 0 0 0 0 0
          0 1 1 0 0 1
          1 1 1 0 0 0
          0 1 1 1 1 0
          1 0 1 1 1 1
          1 0 1 0 1 1
          1 1 1 0 0 0
          0 0 1 0 1 1
          0 1 0 1 0 1
          0 0 0 0 0 0
          0 0 0 1 0 1
          1 1 0 1 1 0
          0 0 0 0 0 0
          0 1 0 1 0 1
          1 1 1 0 0 0
          0 0 0 0 0 1
          0 1 1 1 1 1
          1 0 0 0 0 0
          0 1 0 0 0 0
          0 0 0 0 0 0
          0 0 0 0 0 0
          0 0 0 0 0 0
          0 0 0 0 0 0
          0 0 0 0 0 0
          0 0 0 0 0 0
          0 0 0 0 0 0
          0 0 0 0 0 0
          0 0 0 0 0 0
          0 0 0 0 0 0
          0 0 0 1 0 0
          0 1 0 1 0 1
          1 1 0 1 1 0
          0 0 0 0 0 0
          0 0 0 0 0 0
          0 0 0 1 0 1
          1 1 0 1 1 0
          0 1 1 0 0 1
          1 0 0 0 0 0
          0 1 0 0 0 0
          0 0 0 0 0 1
          0 1 1 1 1 1
          1 0 0 1 1 1
          1 1 1 0 0 0
          0 1 0 1 0 1
          0 1 0 1 1 1
          1 0 0 0 0 0
          0 0 0 0 0 0
          0 0 0 0 0 0
          0 0 0 0 0 1
          0 0 0 0 0 0
          0 0 0 1 0 1
          0 1 1 1 1 0
          0 0 0 1 1 1
          1 0 0 1 1 1
          1 1 1 0 0 1
          1 1 1 1 1 0
          0 0 0 0 0 1
          1 0 0 0 0 0
          0 0 0 0 0 0
          0 0 0 0 0 0
          0 0 0 0 0 0
          0 0 0 0 0 0
          0 0 0 0 0 0
          0 0 0 0 0 0
          0 0 0 0 0 0
          0 0 0 0 0 0
          0 0 0 0 0 0
          0 0 0 0 0 0
          0 0 0 0 0 0
          0 0 1 0 1 0
          1 0 1 0 0 0
          0 0 0 0 0 0
          1 1 1 0 1 1
          1 0 0 0 0 0
          0 0 0 0 1 0
          1 1 1 1 1 0
          0 0 0 0 0 0
          1 0 1 1 1 1
          1 1 1 0 0 0
          0 0 0 0 0 0
          0 0 0 0 0 0
          0 0 0 1 1 0
          0 1 1 0 1 1
          1 0 1 1 1 0
          0 0 0 0 0 0
          0 0 0 0 0 0
          0 0 1 0 0 1
          1 1 1 1 1 0
          1 1 1 1 1 1
          1 0 0 0 1 0
          0 0 1 0 1 1
          1 0 1 1 1 0
          0 0 0 0 0 0
          0 0 0 0 0 0
          0 0 0 0 0 0
          0 0 0 0 0 0
          0 0 0 0 0 0
          1 0 0 0 0 1
          1 1 1 0 1 0
          1 1 1 1 1 0
          0 1 1 1 1 1
          1 0 0 0 0 0
          1 0 1 0 1 0
          1 1 1 1 1 0
          0 0 0 0 0 1
          1 0 0 1 1 1
          1 1 1
        </DataArray>
        <CellData>
          <DataArray type="Float64" Name="u" NumberOfTuples="2889" format="ascii" RangeMin="-4.36175" RangeMax="4.36175">
          0 -2.08162 2.08162 -2.08162 2.08162 -2.08162
          2.08162 -2.08162 2.08162 0 -1.32181 -2.77354
          -1.23645 -2.96984 -1.32908 -3.58398 -1.35663 1.32181
          0 1.23645 2.77354 1.32908 2.96984 1.35663
          3.58398 -2.77354 -1.23645 0 -1.32181 -3.58398
          -1.35663 -2.96984 -1.32908 1.23645 2.77354 1.32181
          0 1.35663 3.58398 1.32908 2.96984 -2.96984
          -1.32908 -3.58398 -1.35663 0 -1.32181 -2.77354
          -1.23645 1.32908 2.96984 1.35663 3.58398 1.32181
          0 1.23645 2.77354 -3.58398 -1.35663 -2.96984
          -1.32908 -2.77354 -1.23645 0 -1.32181 1.35663
          3.58398 1.32908 2.96984 1.23645 2.77354 1.32181
          0 0 0 0 0 0
          0 -1.83546 -0.808167 0 0 0
          0 0 -2.52629 0 -3.02078 0
          -0.619542 -1.90675 -0.837279 -2.00067 -0.626656 -1.90529
          -0.758947 0 0 0 -2.817 0
          0 0 -3.12267 -1.80863 -0.623211 -2.04976
          -0.74353 -2.00488 -0.690834 -2.00569 -0.706097 -3.54963
          -3.24811 -3.93479 -3.25089 -3.93479 -3.32154 -4.36175
          -3.0703 -2.01183 -0.686611 -2.0768 -0.688428 -1.93893
          -0.68351 -2.05282 -0.714116 0 0 0
          0 0 0 0.808167 1.83546 0.619542
          0 0.837279 1.90675 0.626656 2.00067 0.758947
          1.90529 0 0 0 0 2.52629
          0 3.02078 0 0.623211 1.80863 0.74353
          2.04976 0.690834 2.00488 0.706097 2.00569 0
          0 2.817 0 0 0 3.12267
          0 0.686611 2.01183 0.688428 2.0768 0.68351
          1.93893 0.714116 2.05282 3.24811 3.54963 3.25089
          3.93479 3.32154 3.93479 3.0703 4.36175 0
          0 0 0 0 -3.02078 0
          -2.52629 -1.90675 -0.837279 0 -0.619542 -1.90529
          -0.758947 -2.00067 -0.626656 0 0 0
          0 -1.83546 -0.808167 0 0 -3.93479
          -3.25089 -3.54963 -3.24811 -4.36175 -3.0703 -3.93479
          -3.32154 -2.0768 -0.688428 -2.01183 -0.686611 -2.05282
          -0.714116 -1.93893 -0.68351 0 -2.817 0
          0 0 -3.12267 0 0 -2.04976
          -0.74353 -1.80863 -0.623211 -2.00569 -0.706097 -2.00488
          -0.690834 0.837279 1.90675 0.619542 0 0.758947
          1.90529 0.626656 2.00067 0 0 0
          0 3.02078 0 2.52629 0 0
          0 0 0 0.808167 1.83546 0
          0 0.688428 2.0768 0.686611 2.01183 0.714116
          2.05282 0.68351 1.93893 3.25089 3.93479 3.24811
          3.54963 3.0703 4.36175 3.32154 3.93479 0.74353
          2.04976 0.623211 1.80863 0.706097 2.00569 0.690834
          2.00488 2.817 0 0 0 3.12267
          0 0 0 0 0 0
          -3.12267 0 0 0 -2.817 -2.00488
          -0.690834 -2.00569 -0.706098 -1.80863 -0.623211 -2.04976
          -0.74353 -3.93479 -3.32154 -4.36175 -3.0703 -3.54963
          -3.24811 -3.93479 -3.25089 -1.93893 -0.68351 -2.05282
          -0.714116 -2.01183 -0.686611 -2.0768 -0.688428 0
          0 -1.83546 -0.808167 0 0 0
          0 0 -2.52629 0 -3.02078 0
          0 0 0 -2.00067 -0.626656 -1.90529
          -0.758947 0 -0.619542 -1.90675 -0.837279 0.690834
          2.00488 0.706098 2.00569 0.623211 1.80863 0.74353
          2.04976 0 0 3.12267 0 0
          0 2.817 0 0.68351 1.93893 0.714116
          2.05282 0.686611 2.01183 0.688428 2.0768 3.32154
          3.93479 3.0703 4.36175 3.24811 3.54963 3.25089
          3.93479 0 0 0.808167 1.83546 0
          0 0 0 0.626656 2.00067 0.758947
          1.90529 0.619542 0 0.837279 1.90675 2.52629
          0 3.02078 0 0 0 0
          0 -4.36175 -3.0703 -3.93479 -3.32154 -3.93479
          -3.25089 -3.54963 -3.24811 -2.05282 -0.714116 -1.93893
          -0.68351 -2.0768 -0.688428 -2.01183 -0.686611 0
          -3.12267 0 0 0 -2.817 0
          0 -2.00569 -0.706098 -2.00488 -0.690834 -2.04976
          -0.74353 -1.80863 -0.623211 0 -3.02078 0
          -2.52629 0 0 0 0 -1.90529
          -0.758947 -2.00067 -0.626656 -1.90675 -0.837279 0
          -0.619542 -1.83546 -0.808167 0 0 0
          0 0 0 0.714116 2.05282 0.68351
          1.93893 0.688428 2.0768 0.686611 2.01183 3.0703
          4.36175 3.32154 3.93479 3.25089 3.93479 3.24811
          3.54963 0.706097 2.00569 0.690834 2.00488 0.74353
          2.04976 0.623211 1.80863 3.12267 0 0
          0 2.817 0 0 0 0.758947
          1.90529 0.626656 2.00067 0.837279 1.90675 0.619542
          0 3.02078 0 2.52629 0 0
          0 0 0 0.808167 1.83546 0
          0 0 0 0 0 0
          0 0 0 0 0 -2.23559
          -1.43534 0 0 -1.43534 -0.494583 -0.494583
          -0.494583 -1.43534 -0.494583 0 0 0
          0 0 -2.23559 0 -2.817 0
          -2.817 0 -3.12267 -3.12267 -2.817 -3.12267
          -3.12267 0 0 0 0 0
          0 -0.921542 -0.317542 0 0 0
          0 0 -1.80863 0 -2.00488 0
          0 0 0 -1.43534 -0.423389 -0.830948
          -0.659443 0 -1.43534 -2.817 -1.43534 -2.23559
          -1.43534 -2.817 -1.82912 -0.921542 -0.317542 -0.921542
          -0.259806 -1.17437 -0.404658 -0.753988 -0.259806 -1.80863
          -1.80863 -2.00488 -1.64035 -2.30482 -1.47979 -2.55491
          -1.64035 -1.17437 -0.346409 -0.679866 -0.539544 -1.17437
          -0.586435 -1.15094 -0.419646 0 0 0
          -2.817 0 0 0 -2.817 0
          -3.12267 -3.12267 -3.12267 0 -3.12267 -3.12267
          -3.12267 0 0 0 0 0
          0 0 -1.80863 0 0 0
          0 0 0 -0.623211 -0.623211 0
          -1.80863 -2.817 -1.80863 -1.80863 -1.80863 -2.817
          -1.47979 -0.623211 -0.623211 -1.17437 -0.404658 -0.623211
          -0.509899 -1.47979 -0.509899 0 0 0
          -2.00488 0 0 0 -2.00488 0
          0 -0.690834 -0.690834 0 0 -0.690834
          -0.690834 -2.00488 -2.00488 -2.55491 -1.64035 -2.00488
          -1.64035 -2.55491 -1.64035 -0.565228 -0.565228 -1.27583
          -0.396588 -0.565228 -0.565228 -1.27583 -0.439621 0
          0 0 0 0 0 0
          -3.54963 0 -2.817 -3.54963 -3.54963 -3.54963
          -2.817 -3.54963 -2.90424 0 0 0
          0 0 -3.93479 0 -3.93479 -3.93479
          -2.30482 -3.93479 -2.55491 -3.93479 -2.90424 -3.21938
          -3.21938 0 0 0 -3.93479 0
          0 0 -3.93479 -3.93479 -2.55491 -3.93479
          -3.21938 -3.93479 -2.55491 -3.21938 -3.21938 0
          -4.36175 0 -4.36175 0 -4.36175 0
          -4.36175 -3.56871 -2.50396 -3.56871 -2.50396 -3.56871
          -2.50396 -3.56871 -2.77566 -2.30482 -1.17437 -2.30482
          -1.82912 -2.30482 -1.47979 -2.90424 -1.79264 -1.17437
          -0.404658 -0.913395 -0.314734 -1.15094 -0.396588 -0.913395
          -0.22481 -2.30482 -1.79264 -2.55491 -1.98715 -2.25885
          -1.79264 -2.50396 -1.41939 -0.913395 -0.586435 -1.15094
          -0.299747 -1.01617 -0.418883 -0.822102 -0.299747 -2.55491
          -1.15094 -2.25885 -1.79264 -2.55491 -1.27583 -2.50396
          -1.41939 -1.15094 -0.396588 -0.822102 -0.283277 -1.27583
          -0.314015 -0.911308 -0.314015 -2.25885 -1.61347 -2.50396
          -1.78854 -2.50396 -1.78854 -1.98261 -1.98261 -1.28045
          -0.391455 -0.768273 -0.391455 -0.851637 -0.546785 -1.07313
          -0.409746 0 0 0.494583 1.43534 0.494583
          0.494583 0.494583 1.43534 0 0 0
          0 0 0 1.43534 2.23559 0
          0 0 0 0 0 0.317542
          0.921542 0 0 0 0 0.423389
          1.43534 0.659443 0.830948 0 0 0
          0 1.80863 0 2.00488 0 0.317542
          0.921542 0.259806 0.921542 0.404658 1.17437 0.259806
          0.753988 1.43534 0 1.43534 2.817 1.43534
          2.23559 1.82912 2.817 0.346409 1.17437 0.539544
          0.679866 0.586435 1.17437 0.419646 1.15094 1.80863
          1.80863 1.64035 2.00488 1.47979 2.30482 1.64035
          2.55491 0 0 0 0 2.23559
          0 2.817 0 2.817 0 3.12267
          0 2.817 3.12267 3.12267 3.12267 0
          0 0 0 0 0 0.623211
          0.623211 0 0 0 0 0
          0 1.80863 0 0.623211 0.623211 0.404658
          1.17437 0.509899 0.623211 0.509899 1.47979 1.80863
          0 1.80863 2.817 1.80863 1.80863 1.47979
          2.817 0 0 0.690834 0.690834 0
          0 0.690834 0.690834 0 0 2.00488
          0 0 0 2.00488 0 0.565228
          0.565228 0.396588 1.27583 0.565228 0.565228 0.439621
          1.27583 2.00488 2.00488 1.64035 2.55491 1.64035
          2.00488 1.64035 2.55491 0 0 2.817
          0 0 0 2.817 0 3.12267
          0 3.12267 3.12267 3.12267 0 3.12267
          3.12267 0.404658 1.17437 0.314734 0.913395 0.396588
          1.15094 0.22481 0.913395 1.17437 2.30482 1.82912
          2.30482 1.47979 2.30482 1.79264 2.90424 0.586435
          0.913395 0.299747 1.15094 0.418883 1.01617 0.299747
          0.822102 1.79264 2.30482 1.98715 2.55491 1.79264
          2.25885 1.41939 2.50396 0.396588 1.15094 0.283277
          0.822102 0.314015 1.27583 0.314015 0.911308 1.15094
          2.55491 1.79264 2.25885 1.27583 2.55491 1.41939
          2.50396 0.391455 1.28045 0.391455 0.768273 0.546785
          0.851637 0.409746 1.07313 1.61347 2.25885 1.78854
          2.50396 1.78854 2.50396 1.98261 1.98261 2.817
          0 3.54963 3.54963 2.817 3.54963 2.90424
          3.54963 0 0 0 0 0
          0 3.54963 0 2.30482 3.93479 2.55491
          3.93479 2.90424 3.93479 3.21938 3.21938 0
          0 0 0 3.93479 0 3.93479
          0 2.55491 3.93479 3.21938 3.93479 2.55491
          3.93479 3.21938 3.21938 0 0 3.93479
          0 0 0 3.93479 0 2.50396
          3.56871 2.50396 3.56871 2.50396 3.56871 2.77566
          3.56871 4.36175 0 4.36175 0 4.36175
          0 4.36175 0 0 -3.12267 0
          -2.817 -3.12267 -3.12267 -3.12267 -2.817 0
          0 0 0 0 -2.817 0
          -2.23559 0 0 0 0 0
          -2.00488 0 -1.80863 0 0 0
          0 -0.830948 -0.659443 -1.43534 -0.423389 0
          0 0 0 -0.921542 -0.317542 0
          0 -2.00488 -1.64035 -1.80863 -1.80863 -2.55491
          -1.64035 -2.30482 -1.47979 -0.679866 -0.539544 -1.17437
          -0.346409 -1.15094 -0.419646 -1.17437 -0.586435 -2.817
          -1.43534 0 -1.43534 -2.817 -1.82912 -2.23559
          -1.43534 -0.921542 -0.259806 -0.921542 -0.317542 -0.753988
          -0.259806 -1.17437 -0.404658 0 0 0
          0 -2.23559 -1.43534 0 0 -1.43534
          -0.494583 0 0 -1.43534 -0.494583 -0.494583
          -0.494583 0 0 0 0 0
          -3.93479 0 -3.93479 -3.93479 -2.55491 -3.93479
          -2.30482 -3.21938 -3.21938 -3.93479 -2.90424 0
          0 0 0 0 -3.54963 0
          0 -3.54963 -3.54963 0 -2.817 -3.54963
          -2.90424 -3.54963 -2.817 0 -4.36175 0
          -4.36175 0 -4.36175 0 -4.36175 -3.56871
          -2.50396 -3.56871 -2.50396 -3.56871 -2.77566 -3.56871
          -2.50396 0 -3.93479 0 0 0
          -3.93479 0 0 -3.93479 -3.21938 -3.93479
          -2.55491 -3.21938 -3.21938 -3.93479 -2.55491 -2.55491
          -1.98715 -2.30482 -1.79264 -2.50396 -1.41939 -2.25885
          -1.79264 -1.15094 -0.299747 -0.913395 -0.586435 -0.822102
          -0.299747 -1.01617 -0.418883 -2.30482 -1.82912 -2.30482
          -1.17437 -2.90424 -1.79264 -2.30482 -1.47979 -0.913395
          -0.314734 -1.17437 -0.404658 -0.913395 -0.22481 -1.15094
          -0.396588 -2.50396 -1.78854 -2.25885 -1.61347 -1.98261
          -1.98261 -2.50396 -1.78854 -0.768273 -0.391455 -1.28045
          -0.391455 -1.07313 -0.409746 -0.851637 -0.546785 -2.25885
          -1.79264 -2.55491 -1.15094 -2.50396 -1.41939 -2.55491
          -1.27583 -0.822102 -0.283277 -1.15094 -0.396588 -0.911308
          -0.314015 -1.27583 -0.314015 0 -2.817 0
          0 0 -2.817 0 0 -3.12267
          -3.12267 0 -3.12267 -3.12267 -3.12267 0
          -3.12267 -2.817 -1.80863 0 -1.80863 -2.817
          -1.47979 -1.80863 -1.80863 -1.17437 -0.404658 -0.623211
          -0.623211 -1.47979 -0.509899 -0.623211 -0.509899 0
          0 0 0 0 -1.80863 0
          0 0 0 0 0 -0.623211
          -0.623211 0 0 -2.55491 -1.64035 -2.00488
          -2.00488 -2.55491 -1.64035 -2.00488 -1.64035 -1.27583
          -0.396588 -0.565228 -0.565228 -1.27583 -0.439621 -0.565228
          -0.565228 0 -2.00488 0 0 0
          -2.00488 0 0 -0.690834 -0.690834 0
          0 -0.690834 -0.690834 0 0 0
          0 0 0 0.659443 0.830948 0.423389
          1.43534 0 0 0 0 2.00488
          0 1.80863 0 0 0 0
          0 0.317542 0.921542 0 0 0.539544
          0.679866 0.346409 1.17437 0.419646 1.15094 0.586435
          1.17437 1.64035 2.00488 1.80863 1.80863 1.64035
          2.55491 1.47979 2.30482 0.259806 0.921542 0.317542
          0.921542 0.259806 0.753988 0.404658 1.17437 1.43534
          2.817 1.43534 0 1.82912 2.817 1.43534
          2.23559 3.12267 0 2.817 0 3.12267
          3.12267 2.817 3.12267 0 0 0
          0 2.817 0 2.23559 0 0.494583
          1.43534 0 0 0.494583 1.43534 0.494583
          0.494583 0 0 0 0 1.43534
          2.23559 0 0 0.299747 1.15094 0.586435
          0.913395 0.299747 0.822102 0.418883 1.01617 1.98715
          2.55491 1.79264 2.30482 1.41939 2.50396 1.79264
          2.25885 0.314734 0.913395 0.404658 1.17437 0.22481
          0.913395 0.396588 1.15094 1.82912 2.30482 1.17437
          2.30482 1.79264 2.90424 1.47979 2.30482 0.391455
          0.768273 0.391455 1.28045 0.409746 1.07313 0.546785
          0.851637 1.78854 2.50396 1.61347 2.25885 1.98261
          1.98261 1.78854 2.50396 0.283277 0.822102 0.396588
          1.15094 0.314015 0.911308 0.314015 1.27583 1.79264
          2.25885 1.15094 2.55491 1.41939 2.50396 1.27583
          2.55491 2.55491 3.93479 2.30482 3.93479 3.21938
          3.21938 2.90424 3.93479 0 0 0
          0 3.93479 0 3.93479 0 3.54963
          3.54963 2.817 0 2.90424 3.54963 2.817
          3.54963 0 0 0 0 3.54963
          0 0 0 2.50396 3.56871 2.50396
          3.56871 2.77566 3.56871 2.50396 3.56871 4.36175
          0 4.36175 0 4.36175 0 4.36175
          0 3.21938 3.93479 2.55491 3.93479 3.21938
          3.21938 2.55491 3.93479 3.93479 0 0
          0 3.93479 0 0 0 0.404658
          1.17437 0.623211 0.623211 0.509899 1.47979 0.509899
          0.623211 1.80863 2.817 1.80863 0 1.47979
          2.817 1.80863 1.80863 0 0 0
          0 0.623211 0.623211 0 0 0
          0 0 0 1.80863 0 0
          0 0.396588 1.27583 0.565228 0.565228 0.439621
          1.27583 0.565228 0.565228 1.64035 2.55491 2.00488
          2.00488 1.64035 2.55491 1.64035 2.00488 0.690834
          0.690834 0 0 0.690834 0.690834 0
          0 2.00488 0 0 0 2.00488
          0 0 0 2.817 0 0
          0 2.817 0 0 0 3.12267
          3.12267 3.12267 0 3.12267 3.12267 3.12267
          0 0 -3.12267 -3.12267 -3.12267 0
          -3.12267 -3.12267 -3.12267 0 0 0
          -2.817 0 0 0 -2.817 0
          0 0 -2.00488 0 0 0
          -2.00488 0 0 -0.690834 -0.690834 0
          0 -0.690834 -0.690834 -2.00488 -1.64035 -2.55491
          -1.64035 -2.00488 -2.00488 -2.55491 -1.64035 -0.565228
          -0.565228 -1.27583 -0.439621 -0.565228 -0.565228 -1.27583
          -0.396588 0 0 0 -1.80863 0
          0 0 0 0 0 -0.623211
          -0.623211 0 0 0 0 -1.80863
          -1.80863 -2.817 -1.47979 0 -1.80863 -2.817
          -1.80863 -0.623211 -0.509899 -1.47979 -0.509899 -0.623211
          -0.623211 -1.17437 -0.404658 0 0 0
          -3.93479 0 0 0 -3.93479 -3.93479
          -2.55491 -3.21938 -3.21938 -3.93479 -2.55491 -3.93479
          -3.21938 0 -4.36175 0 -4.36175 0
          -4.36175 0 -4.36175 -3.56871 -2.50396 -3.56871
          -2.77566 -3.56871 -2.50396 -3.56871 -2.50396 0
          0 0 -3.54963 0 0 0
          0 -3.54963 -2.817 -3.54963 -2.90424 0
          -2.817 -3.54963 -3.54963 0 -3.93479 0
          -3.93479 0 0 0 0 -3.93479
          -2.90424 -3.21938 -3.21938 -3.93479 -2.30482 -3.93479
          -2.55491 -2.55491 -1.27583 -2.50396 -1.41939 -2.55491
          -1.15094 -2.25885 -1.79264 -1.27583 -0.314015 -0.911308
          -0.314015 -1.15094 -0.396588 -0.822102 -0.283277 -2.50396
          -1.78854 -1.98261 -1.98261 -2.25885 -1.61347 -2.50396
          -1.78854 -0.851637 -0.546785 -1.07313 -0.409746 -1.28045
          -0.391455 -0.768273 -0.391455 -2.30482 -1.47979 -2.90424
          -1.79264 -2.30482 -1.17437 -2.30482 -1.82912 -1.15094
          -0.396588 -0.913395 -0.22481 -1.17437 -0.404658 -0.913395
          -0.314734 -2.25885 -1.79264 -2.50396 -1.41939 -2.30482
          -1.79264 -2.55491 -1.98715 -1.01617 -0.418883 -0.822102
          -0.299747 -0.913395 -0.586435 -1.15094 -0.299747 0
          0 -2.23559 -1.43534 0 0 0
          0 -0.494583 -0.494583 -1.43534 -0.494583 0
          0 -1.43534 -0.494583 0 -2.23559 0
          -2.817 0 0 0 0 -3.12267