unknown system                          
 1.0
     9.000000    0.000000    0.000000
     0.000000    4.000000    7.000000
     0.000000    -3.000000    1.000000
  8
Direct
  0.187500  0.187418  0.061882
  0.437500  0.187418  0.061882
  0.687500  0.187418  0.061882
  0.937500  0.187418  0.061882
  0.062500  0.187419  0.061880
  0.312500  0.187419  0.061880
  0.562500  0.187419  0.061880
  0.812500  0.187419  0.061880
 
  5  5  5

5 5 5 5 5
5 5 5 5 5
0 0 5 0 0
5 5 5 5 5
5 5 5 5 5

4 4 5 4 4
4 4 5 4 4
0 0 5 0 0
4 4 5 4 4
4 4 5 4 4

3 3 5 3 3
3 3 5 3 3
0 0 5 0 0
3 3 5 3 3
3 3 5 3 3

2 2 5 2 2
2 2 5 2 2
0 0 5 0 0
2 2 5 2 2
2 2 5 2 2

1 1 5 1 1
1 1 5 1 1
0 0 5 0 0
1 1 5 1 1
1 1 5 1 1

