# vtk DataFile Version 3.0
vtk output
ASCII
DATASET STRUCTURED_GRID
FIELD FieldData 1
avtOriginalBounds 1 6 double
0 9 -3 4 0 8 
DIMENSIONS 6 6 6
POINTS 216 float
0 0 0 1.8 0 0 3.6 0 0 
5.4 0 0 7.2 0 0 9 0 0 
0 0.8 1.4 1.8 0.8 1.4 3.6 0.8 1.4 
5.4 0.8 1.4 7.2 0.8 1.4 9 0.8 1.4 
0 1.6 2.8 1.8 1.6 2.8 3.6 1.6 2.8 
5.4 1.6 2.8 7.2 1.6 2.8 9 1.6 2.8 
0 2.4 4.2 1.8 2.4 4.2 3.6 2.4 4.2 
5.4 2.4 4.2 7.2 2.4 4.2 9 2.4 4.2 
0 3.2 5.6 1.8 3.2 5.6 3.6 3.2 5.6 
5.4 3.2 5.6 7.2 3.2 5.6 9 3.2 5.6 
0 4 7 1.8 4 7 3.6 4 7 
5.4 4 7 7.2 4 7 9 4 7 
0 -0.6 0.2 1.8 -0.6 0.2 3.6 -0.6 0.2 
5.4 -0.6 0.2 7.2 -0.6 0.2 9 -0.6 0.2 
0 0.2 1.6 1.8 0.2 1.6 3.6 0.2 1.6 
5.4 0.2 1.6 7.2 0.2 1.6 9 0.2 1.6 
0 1 3 1.8 1 3 3.6 1 3 
5.4 1 3 7.2 1 3 9 1 3 
0 1.8 4.4 1.8 1.8 4.4 3.6 1.8 4.4 
5.4 1.8 4.4 7.2 1.8 4.4 9 1.8 4.4 
0 2.6 5.8 1.8 2.6 5.8 3.6 2.6 5.8 
5.4 2.6 5.8 7.2 2.6 5.8 9 2.6 5.8 
0 3.4 7.2 1.8 3.4 7.2 3.6 3.4 7.2 
5.4 3.4 7.2 7.2 3.4 7.2 9 3.4 7.2 
0 -1.2 0.4 1.8 -1.2 0.4 3.6 -1.2 0.4 
5.4 -1.2 0.4 7.2 -1.2 0.4 9 -1.2 0.4 
0 -0.4 1.8 1.8 -0.4 1.8 3.6 -0.4 1.8 
5.4 -0.4 1.8 7.2 -0.4 1.8 9 -0.4 1.8 
0 0.4 3.2 1.8 0.4 3.2 3.6 0.4 3.2 
5.4 0.4 3.2 7.2 0.4 3.2 9 0.4 3.2 
0 1.2 4.6 1.8 1.2 4.6 3.6 1.2 4.6 
5.4 1.2 4.6 7.2 1.2 4.6 9 1.2 4.6 
0 2 6 1.8 2 6 3.6 2 6 
5.4 2 6 7.2 2 6 9 2 6 
0 2.8 7.4 1.8 2.8 7.4 3.6 2.8 7.4 
5.4 2.8 7.4 7.2 2.8 7.4 9 2.8 7.4 
0 -1.8 0.6 1.8 -1.8 0.6 3.6 -1.8 0.6 
5.4 -1.8 0.6 7.2 -1.8 0.6 9 -1.8 0.6 
0 -1 2 1.8 -1 2 3.6 -1 2 
5.4 -1 2 7.2 -1 2 9 -1 2 
0 -0.2 3.4 1.8 -0.2 3.4 3.6 -0.2 3.4 
5.4 -0.2 3.4 7.2 -0.2 3.4 9 -0.2 3.4 
0 0.6 4.8 1.8 0.6 4.8 3.6 0.6 4.8 
5.4 0.6 4.8 7.2 0.6 4.8 9 0.6 4.8 
0 1.4 6.2 1.8 1.4 6.2 3.6 1.4 6.2 
5.4 1.4 6.2 7.2 1.4 6.2 9 1.4 6.2 
0 2.2 7.6 1.8 2.2 7.6 3.6 2.2 7.6 
5.4 2.2 7.6 7.2 2.2 7.6 9 2.2 7.6 
0 -2.4 0.8 1.8 -2.4 0.8 3.6 -2.4 0.8 
5.4 -2.4 0.8 7.2 -2.4 0.8 9 -2.4 0.8 
0 -1.6 2.2 1.8 -1.6 2.2 3.6 -1.6 2.2 
5.4 -1.6 2.2 7.2 -1.6 2.2 9 -1.6 2.2 
0 -0.8 3.6 1.8 -0.8 3.6 3.6 -0.8 3.6 
5.4 -0.8 3.6 7.2 -0.8 3.6 9 -0.8 3.6 
0 4.44089e-16 5 1.8 4.44089e-16 5 3.6 4.44089e-16 5 
5.4 4.44089e-16 5 7.2 4.44089e-16 5 9 4.44089e-16 5 
0 0.8 6.4 1.8 0.8 6.4 3.6 0.8 6.4 
5.4 0.8 6.4 7.2 0.8 6.4 9 0.8 6.4 
0 1.6 7.8 1.8 1.6 7.8 3.6 1.6 7.8 
5.4 1.6 7.8 7.2 1.6 7.8 9 1.6 7.8 
0 -3 1 1.8 -3 1 3.6 -3 1 
5.4 -3 1 7.2 -3 1 9 -3 1 
0 -2.2 2.4 1.8 -2.2 2.4 3.6 -2.2 2.4 
5.4 -2.2 2.4 7.2 -2.2 2.4 9 -2.2 2.4 
0 -1.4 3.8 1.8 -1.4 3.8 3.6 -1.4 3.8 
5.4 -1.4 3.8 7.2 -1.4 3.8 9 -1.4 3.8 
0 -0.6 5.2 1.8 -0.6 5.2 3.6 -0.6 5.2 
5.4 -0.6 5.2 7.2 -0.6 5.2 9 -0.6 5.2 
0 0.2 6.6 1.8 0.2 6.6 3.6 0.2 6.6 
5.4 0.2 6.6 7.2 0.2 6.6 9 0.2 6.6 
0 1 8 1.8 1 8 3.6 1 8 
5.4 1 8 7.2 1 8 9 1 8 

CELL_DATA 125
POINT_DATA 216
FIELD FieldData 1
charge 1 216 float
5 5 5 5 5 5 5 5 5 
5 5 5 0 0 5 0 0 0 
5 5 5 5 5 5 5 5 5 
5 5 5 5 5 5 5 5 5 
4 4 5 4 4 4 4 4 5 
4 4 4 0 0 5 0 0 0 
4 4 5 4 4 4 4 4 5 
4 4 4 4 4 5 4 4 4 
3 3 5 3 3 3 3 3 5 
3 3 3 0 0 5 0 0 0 
3 3 5 3 3 3 3 3 5 
3 3 3 3 3 5 3 3 3 
2 2 5 2 2 2 2 2 5 
2 2 2 0 0 5 0 0 0 
2 2 5 2 2 2 2 2 5 
2 2 2 2 2 5 2 2 2 
1 1 5 1 1 1 1 1 5 
1 1 1 0 0 5 0 0 0 
1 1 5 1 1 1 1 1 5 
1 1 1 1 1 5 1 1 1 
5 5 5 5 5 5 5 5 5 
5 5 5 0 0 5 0 0 0 
5 5 5 5 5 5 5 5 5 
5 5 5 5 5 5 5 5 5 

