# vtk DataFile Version 3.0
vtk output
ASCII
DATASET RECTILINEAR_GRID
DIMENSIONS 2 2 2
X_COORDINATES 2 float
-0.9 0.9
Y_COORDINATES 2 float
-0.9 0.9
Z_COORDINATES 2 float
-0.9 0.9
CELL_DATA 1
SCALARS cellLabel char
LOOKUP_TABLE default
d
POINT_DATA 8
SCALARS nodeLabels char
LOOKUP_TABLE default
A B C D E F G H
