# vtk DataFile Version 3.0
vtk output
ASCII
DATASET POLYDATA
FIELD FieldData 2
base_index 1 3 int
0 0 0 
avtOriginalBounds 1 6 float
-10 10 -10 10 -10 10 
POINTS 2500 float
1e-17 -10 -10 0 -10 -9.59184 0 -9.59184 -10 
0 -9.59184 -9.59184 0 -10 -9.18367 0 -9.59184 -9.18367 
0 -10 -8.77551 0 -9.59184 -8.77551 0 -10 -8.36735 
0 -9.59184 -8.36735 0 -10 -7.95918 0 -9.59184 -7.95918 
0 -10 -7.55102 0 -9.59184 -7.55102 0 -10 -7.14286 
0 -9.59184 -7.14286 0 -10 -6.73469 0 -9.59184 -6.73469 
0 -10 -6.32653 0 -9.59184 -6.32653 0 -10 -5.91837 
0 -9.59184 -5.91837 0 -10 -5.5102 0 -9.59184 -5.5102 
0 -10 -5.10204 0 -9.59184 -5.10204 0 -10 -4.69388 
0 -9.59184 -4.69388 0 -10 -4.28571 0 -9.59184 -4.28571 
0 -10 -3.87755 0 -9.59184 -3.87755 0 -10 -3.46939 
0 -9.59184 -3.46939 0 -10 -3.06122 0 -9.59184 -3.06122 
0 -10 -2.65306 0 -9.59184 -2.65306 0 -10 -2.2449 
0 -9.59184 -2.2449 0 -10 -1.83673 0 -9.59184 -1.83673 
0 -10 -1.42857 0 -9.59184 -1.42857 0 -10 -1.02041 
0 -9.59184 -1.02041 0 -10 -0.612245 0 -9.59184 -0.612245 
0 -10 -0.204082 0 -9.59184 -0.204082 0 -10 0.204082 
0 -9.59184 0.204082 0 -10 0.612245 0 -9.59184 0.612245 
0 -10 1.02041 0 -9.59184 1.02041 0 -10 1.42857 
0 -9.59184 1.42857 0 -10 1.83673 0 -9.59184 1.83673 
0 -10 2.2449 0 -9.59184 2.2449 0 -10 2.65306 
0 -9.59184 2.65306 0 -10 3.06122 0 -9.59184 3.06122 
0 -10 3.46939 0 -9.59184 3.46939 0 -10 3.87755 
0 -9.59184 3.87755 0 -10 4.28572 0 -9.59184 4.28572 
0 -10 4.69388 0 -9.59184 4.69388 0 -10 5.10204 
0 -9.59184 5.10204 0 -10 5.5102 0 -9.59184 5.5102 
0 -10 5.91837 0 -9.59184 5.91837 0 -10 6.32653 
0 -9.59184 6.32653 0 -10 6.73469 0 -9.59184 6.73469 
0 -10 7.14286 0 -9.59184 7.14286 0 -10 7.55102 
0 -9.59184 7.55102 0 -10 7.95918 0 -9.59184 7.95918 
0 -10 8.36735 0 -9.59184 8.36735 0 -10 8.77551 
0 -9.59184 8.77551 0 -10 9.18367 0 -9.59184 9.18367 
0 -10 9.59184 0 -9.59184 9.59184 0 -10 10 
0 -9.59184 10 0 -9.18367 -10 0 -9.18367 -9.59184 
0 -9.18367 -9.18367 0 -9.18367 -8.77551 0 -9.18367 -8.36735 
0 -9.18367 -7.95918 0 -9.18367 -7.55102 0 -9.18367 -7.14286 
0 -9.18367 -6.73469 0 -9.18367 -6.32653 0 -9.18367 -5.91837 
0 -9.18367 -5.5102 0 -9.18367 -5.10204 0 -9.18367 -4.69388 
0 -9.18367 -4.28571 0 -9.18367 -3.87755 0 -9.18367 -3.46939 
0 -9.18367 -3.06122 0 -9.18367 -2.65306 0 -9.18367 -2.2449 
0 -9.18367 -1.83673 0 -9.18367 -1.42857 0 -9.18367 -1.02041 
0 -9.18367 -0.612245 0 -9.18367 -0.204082 0 -8.77551 -10 
0 -8.77551 -9.59184 0 -8.77551 -9.18367 0 -8.77551 -8.77551 
0 -8.77551 -8.36735 0 -8.77551 -7.95918 0 -8.77551 -7.55102 
0 -8.77551 -7.14286 0 -8.77551 -6.73469 0 -8.77551 -6.32653 
0 -8.77551 -5.91837 0 -8.77551 -5.5102 0 -8.77551 -5.10204 
0 -8.77551 -4.69388 0 -8.77551 -4.28571 0 -8.77551 -3.87755 
0 -8.77551 -3.46939 0 -8.77551 -3.06122 0 -8.77551 -2.65306 
0 -8.77551 -2.2449 0 -8.77551 -1.83673 0 -8.77551 -1.42857 
0 -8.77551 -1.02041 0 -8.77551 -0.612245 0 -8.77551 -0.204082 
0 -9.18367 0.204082 0 -9.18367 0.612245 0 -9.18367 1.02041 
0 -9.18367 1.42857 0 -9.18367 1.83673 0 -9.18367 2.2449 
0 -9.18367 2.65306 0 -9.18367 3.06122 0 -9.18367 3.46939 
0 -9.18367 3.87755 0 -9.18367 4.28572 0 -9.18367 4.69388 
0 -9.18367 5.10204 0 -9.18367 5.5102 0 -9.18367 5.91837 
0 -9.18367 6.32653 0 -9.18367 6.73469 0 -9.18367 7.14286 
0 -9.18367 7.55102 0 -9.18367 7.95918 0 -9.18367 8.36735 
0 -9.18367 8.77551 0 -9.18367 9.18367 0 -9.18367 9.59184 
0 -9.18367 10 0 -8.77551 0.204082 0 -8.77551 0.612245 
0 -8.77551 1.02041 0 -8.77551 1.42857 0 -8.77551 1.83673 
0 -8.77551 2.2449 0 -8.77551 2.65306 0 -8.77551 3.06122 
0 -8.77551 3.46939 0 -8.77551 3.87755 0 -8.77551 4.28572 
0 -8.77551 4.69388 0 -8.77551 5.10204 0 -8.77551 5.5102 
0 -8.77551 5.91837 0 -8.77551 6.32653 0 -8.77551 6.73469 
0 -8.77551 7.14286 0 -8.77551 7.55102 0 -8.77551 7.95918 
0 -8.77551 8.36735 0 -8.77551 8.77551 0 -8.77551 9.18367 
0 -8.77551 9.59184 0 -8.77551 10 0 -8.36735 -10 
0 -8.36735 -9.59184 0 -8.36735 -9.18367 0 -8.36735 -8.77551 
0 -8.36735 -8.36735 0 -8.36735 -7.95918 0 -8.36735 -7.55102 
0 -8.36735 -7.14286 0 -8.36735 -6.73469 0 -8.36735 -6.32653 
0 -8.36735 -5.91837 0 -8.36735 -5.5102 0 -8.36735 -5.10204 
0 -8.36735 -4.69388 0 -8.36735 -4.28571 0 -8.36735 -3.87755 
0 -8.36735 -3.46939 0 -8.36735 -3.06122 0 -8.36735 -2.65306 
0 -8.36735 -2.2449 0 -8.36735 -1.83673 0 -8.36735 -1.42857 
0 -8.36735 -1.02041 0 -8.36735 -0.612245 0 -8.36735 -0.204082 
0 -7.95918 -10 0 -7.95918 -9.59184 0 -7.95918 -9.18367 
0 -7.95918 -8.77551 0 -7.95918 -8.36735 0 -7.95918 -7.95918 
0 -7.95918 -7.55102 0 -7.95918 -7.14286 0 -7.95918 -6.73469 
0 -7.95918 -6.32653 0 -7.95918 -5.91837 0 -7.95918 -5.5102 
0 -7.95918 -5.10204 0 -7.55102 -10 0 -7.55102 -9.59184 
0 -7.55102 -9.18367 0 -7.55102 -8.77551 0 -7.55102 -8.36735 
0 -7.55102 -7.95918 0 -7.55102 -7.55102 0 -7.55102 -7.14286 
0 -7.55102 -6.73469 0 -7.55102 -6.32653 0 -7.55102 -5.91837 
0 -7.55102 -5.5102 0 -7.55102 -5.10204 0 -7.95918 -4.69388 
0 -7.95918 -4.28571 0 -7.95918 -3.87755 0 -7.95918 -3.46939 
0 -7.95918 -3.06122 0 -7.95918 -2.65306 0 -7.95918 -2.2449 
0 -7.95918 -1.83673 0 -7.95918 -1.42857 0 -7.95918 -1.02041 
0 -7.95918 -0.612245 0 -7.95918 -0.204082 0 -7.55102 -4.69388 
0 -7.55102 -4.28571 0 -7.55102 -3.87755 0 -7.55102 -3.46939 
0 -7.55102 -3.06122 0 -7.55102 -2.65306 0 -7.55102 -2.2449 
0 -7.55102 -1.83673 0 -7.55102 -1.42857 0 -7.55102 -1.02041 
0 -7.55102 -0.612245 0 -7.55102 -0.204082 0 -8.36735 0.204082 
0 -8.36735 0.612245 0 -8.36735 1.02041 0 -8.36735 1.42857 
0 -8.36735 1.83673 0 -8.36735 2.2449 0 -8.36735 2.65306 
0 -8.36735 3.06122 0 -8.36735 3.46939 0 -8.36735 3.87755 
0 -8.36735 4.28572 0 -8.36735 4.69388 0 -8.36735 5.10204 
0 -8.36735 5.5102 0 -8.36735 5.91837 0 -8.36735 6.32653 
0 -8.36735 6.73469 0 -8.36735 7.14286 0 -8.36735 7.55102 
0 -8.36735 7.95918 0 -8.36735 8.36735 0 -8.36735 8.77551 
0 -8.36735 9.18367 0 -8.36735 9.59184 0 -8.36735 10 
0 -7.95918 0.204082 0 -7.95918 0.612245 0 -7.95918 1.02041 
0 -7.95918 1.42857 0 -7.95918 1.83673 0 -7.95918 2.2449 
0 -7.95918 2.65306 0 -7.95918 3.06122 0 -7.95918 3.46939 
0 -7.95918 3.87755 0 -7.95918 4.28572 0 -7.95918 4.69388 
0 -7.55102 0.204082 0 -7.55102 0.612245 0 -7.55102 1.02041 
0 -7.55102 1.42857 0 -7.55102 1.83673 0 -7.55102 2.2449 
0 -7.55102 2.65306 0 -7.55102 3.06122 0 -7.55102 3.46939 
0 -7.55102 3.87755 0 -7.55102 4.28572 0 -7.55102 4.69388 
0 -7.95918 5.10204 0 -7.95918 5.5102 0 -7.95918 5.91837 
0 -7.95918 6.32653 0 -7.95918 6.73469 0 -7.95918 7.14286 
0 -7.95918 7.55102 0 -7.95918 7.95918 0 -7.95918 8.36735 
0 -7.95918 8.77551 0 -7.95918 9.18367 0 -7.95918 9.59184 
0 -7.95918 10 0 -7.55102 5.10204 0 -7.55102 5.5102 
0 -7.55102 5.91837 0 -7.55102 6.32653 0 -7.55102 6.73469 
0 -7.55102 7.14286 0 -7.55102 7.55102 0 -7.55102 7.95918 
0 -7.55102 8.36735 0 -7.55102 8.77551 0 -7.55102 9.18367 
0 -7.55102 9.59184 0 -7.55102 10 0 -7.14286 -10 
0 -7.14286 -9.59184 0 -7.14286 -9.18367 0 -7.14286 -8.77551 
0 -7.14286 -8.36735 0 -7.14286 -7.95918 0 -7.14286 -7.55102 
0 -7.14286 -7.14286 0 -7.14286 -6.73469 0 -7.14286 -6.32653 
0 -7.14286 -5.91837 0 -7.14286 -5.5102 0 -7.14286 -5.10204 
0 -7.14286 -4.69388 0 -7.14286 -4.28571 0 -7.14286 -3.87755 
0 -7.14286 -3.46939 0 -7.14286 -3.06122 0 -7.14286 -2.65306 
0 -7.14286 -2.2449 0 -7.14286 -1.83673 0 -7.14286 -1.42857 
0 -7.14286 -1.02041 0 -7.14286 -0.612245 0 -7.14286 -0.204082 
0 -6.73469 -10 0 -6.73469 -9.59184 0 -6.73469 -9.18367 
0 -6.73469 -8.77551 0 -6.73469 -8.36735 0 -6.73469 -7.95918 
0 -6.73469 -7.55102 0 -6.73469 -7.14286 0 -6.73469 -6.73469 
0 -6.73469 -6.32653 0 -6.73469 -5.91837 0 -6.73469 -5.5102 
0 -6.73469 -5.10204 0 -6.32653 -10 0 -6.32653 -9.59184 
0 -6.32653 -9.18367 0 -6.32653 -8.77551 0 -6.32653 -8.36735 
0 -6.32653 -7.95918 0 -6.32653 -7.55102 0 -6.32653 -7.14286 
0 -6.32653 -6.73469 0 -6.32653 -6.32653 0 -6.32653 -5.91837 
0 -6.32653 -5.5102 0 -6.32653 -5.10204 0 -6.73469 -4.69388 
0 -6.73469 -4.28571 0 -6.73469 -3.87755 0 -6.73469 -3.46939 
0 -6.73469 -3.06122 0 -6.73469 -2.65306 0 -6.73469 -2.2449 
0 -6.73469 -1.83673 0 -6.73469 -1.42857 0 -6.73469 -1.02041 
0 -6.73469 -0.612245 0 -6.73469 -0.204082 0 -6.32653 -4.69388 
0 -6.32653 -4.28571 0 -6.32653 -3.87755 0 -6.32653 -3.46939 
0 -6.32653 -3.06122 0 -6.32653 -2.65306 0 -6.32653 -2.2449 
0 -6.32653 -1.83673 0 -6.32653 -1.42857 0 -6.32653 -1.02041 
0 -6.32653 -0.612245 0 -6.32653 -0.204082 0 -5.91837 -10 
0 -5.91837 -9.59184 0 -5.91837 -9.18367 0 -5.91837 -8.77551 
0 -5.91837 -8.36735 0 -5.91837 -7.95918 0 -5.91837 -7.55102 
0 -5.91837 -7.14286 0 -5.91837 -6.73469 0 -5.91837 -6.32653 
0 -5.91837 -5.91837 0 -5.91837 -5.5102 0 -5.91837 -5.10204 
0 -5.5102 -10 0 -5.5102 -9.59184 0 -5.5102 -9.18367 
0 -5.5102 -8.77551 0 -5.5102 -8.36735 0 -5.5102 -7.95918 
0 -5.5102 -7.55102 0 -5.10204 -10 0 -5.10204 -9.59184 
0 -5.10204 -9.18367 0 -5.10204 -8.77551 0 -5.10204 -8.36735 
0 -5.10204 -7.95918 0 -5.10204 -7.55102 0 -5.5102 -7.14286 
0 -5.5102 -6.73469 0 -5.5102 -6.32653 0 -5.5102 -5.91837 
0 -5.5102 -5.5102 0 -5.5102 -5.10204 0 -5.10204 -7.14286 
0 -5.10204 -6.73469 0 -5.10204 -6.32653 0 -5.10204 -5.91837 
0 -5.10204 -5.5102 0 -5.10204 -5.10204 0 -5.91837 -4.69388 
0 -5.91837 -4.28571 0 -5.91837 -3.87755 0 -5.91837 -3.46939 
0 -5.91837 -3.06122 0 -5.91837 -2.65306 0 -5.91837 -2.2449 
0 -5.91837 -1.83673 0 -5.91837 -1.42857 0 -5.91837 -1.02041 
0 -5.91837 -0.612245 0 -5.91837 -0.204082 0 -5.5102 -4.69388 
0 -5.5102 -4.28571 0 -5.5102 -3.87755 0 -5.5102 -3.46939 
0 -5.5102 -3.06122 0 -5.5102 -2.65306 0 -5.10204 -4.69388 
0 -5.10204 -4.28571 0 -5.10204 -3.87755 0 -5.10204 -3.46939 
0 -5.10204 -3.06122 0 -5.10204 -2.65306 0 -5.5102 -2.2449 
0 -5.5102 -1.83673 0 -5.5102 -1.42857 0 -5.5102 -1.02041 
0 -5.5102 -0.612245 0 -5.5102 -0.204082 0 -5.10204 -2.2449 
0 -5.10204 -1.83673 0 -5.10204 -1.42857 0 -5.10204 -1.02041 
0 -5.10204 -0.612245 0 -5.10204 -0.204082 0 -7.14286 0.204082 
0 -7.14286 0.612245 0 -7.14286 1.02041 0 -7.14286 1.42857 
0 -7.14286 1.83673 0 -7.14286 2.2449 0 -7.14286 2.65306 
0 -7.14286 3.06122 0 -7.14286 3.46939 0 -7.14286 3.87755 
[...]
CELL_DATA 4802
POINT_DATA 2500
SCALARS hardyglobal float
LOOKUP_TABLE default
2.22555 2.24788 2.2653 2.28878 2.26805 2.3099 2.28547 2.32795 2.29945 
2.342 2.30919 2.35094 2.31387 2.35345 2.31278 2.34819 2.30565 2.33415 
2.29314 2.31129 2.27741 2.28167 2.26274 2.25073 2.25538 2.22799 2.26204 
2.22509 2.28692 2.25052 2.32896 2.30365 2.38153 2.37418 2.43502 2.4474 
2.48008 2.51016 2.50977 2.55367 2.52003 2.57351 2.50924 2.56839 2.47732 
2.5387 2.4249 2.48545 2.35302 2.40972 2.26352 2.31307 2.16055 2.19923 
2.05319 2.07772 1.95805 1.96813 1.89684 1.89862 1.88443 1.88989 1.91631 
1.93597 1.97191 2.00951 2.02901 2.0831 2.07212 2.13959 2.09212 2.17014 
2.08306 2.16967 2.03951 2.13369 1.95518 2.05718 1.8237 1.93571 1.64573 
1.77263 1.45214 1.59887 1.33435 1.49353 1.38056 1.52784 1.54226 1.66389 
1.71617 1.8159 1.85558 1.94045 1.95558 2.03042 2.02331 2.09094 2.06677 
2.12884 2.30647 2.33139 2.35385 2.37302 2.38778 2.39666 2.39783 2.38914 
2.36848 2.3346 2.2887 2.23693 2.19265 2.175 2.19972 2.26713 2.36076 
2.45831 2.542 2.60155 2.63274 2.63507 2.60983 2.55878 2.48351 2.34901 
2.37569 2.39993 2.42084 2.43715 2.44714 2.44847 2.43817 2.41288 2.36968 
2.30814 2.23411 2.16454 2.12794 2.15068 2.2346 2.35429 2.47788 2.58301 
2.65869 2.70147 2.71198 2.69262 2.64624 2.57553 2.38586 2.26971 2.14478 
2.03165 1.96071 1.95478 2.00748 2.08928 2.17125 2.23597 2.27502 2.284 
2.25968 2.19923 2.10209 1.97598 1.8484 1.77085 1.78303 1.86603 1.96952 
2.06043 2.12848 2.17439 2.20203 2.48335 2.37445 2.25889 2.15592 2.09238 
2.08778 2.13684 2.21436 2.2946 2.36119 2.40574 2.42384 2.41281 2.37136 
2.30143 2.21207 2.12378 2.06584 2.05815 2.09375 2.14835 2.20123 2.24248 
2.26977 2.28417 2.3928 2.42155 2.448 2.47129 2.49013 2.50266 2.50623 
2.49725 2.47126 2.42372 2.3523 2.2617 2.17109 2.11724 2.13734 2.23512 
2.37649 2.52115 2.64349 2.7323 2.78482 2.80254 2.78893 2.74809 2.68417 
2.43765 2.46868 2.4977 2.52393 2.54619 2.5627 2.5708 2.56666 2.54527 
2.50108 2.43049 2.33724 2.24088 2.48329 2.5167 2.54846 2.57796 2.60423 
2.62579 2.64026 2.64409 2.63236 2.59944 2.54144 2.4617 2.3785 2.18104 
2.19914 2.30054 2.44924 2.60259 2.73359 2.83008 2.88867 2.91082 2.90069 
2.86375 2.80588 2.3276 2.34555 2.43886 2.57884 2.72806 2.85958 2.95864 
3.0192 3.04146 3.03014 2.99251 2.93657 2.60157 2.50625 2.40822 2.32364 
2.27257 2.2686 2.30827 2.3739 2.44584 2.50997 2.55788 2.58454 2.58671 
2.56306 2.51567 2.45222 2.3868 2.33646 2.31248 2.31372 2.32971 2.34906 
2.36434 2.37232 2.37236 2.7331 2.65234 2.57287 2.50712 2.46852 2.46551 
2.49618 2.54963 2.61243 2.67344 2.72466 2.76014 2.87 2.8003 2.73551 
2.68455 2.65591 2.65456 2.67957 2.72469 2.78142 2.84158 2.89798 2.94383 
2.77516 2.76675 2.73531 2.6863 2.62996 2.57813 2.53929 2.51533 2.50246 
2.49487 2.48763 2.47772 2.46376 2.97222 2.97712 2.956 2.91229 2.85504 
2.79524 2.74146 2.69744 2.66256 2.63389 2.60813 2.58268 2.55597 2.52944 
2.56519 2.59964 2.63237 2.66273 2.68962 2.71121 2.72457 2.72543 2.70868 
2.67068 2.61428 2.55494 2.52122 2.54156 2.62378 2.75017 2.89192 3.02274 
3.12346 3.18318 3.20001 3.17998 3.13368 3.07233 2.57587 2.61376 2.65059 
2.68613 2.72002 2.75157 2.77954 2.80174 2.81474 2.81416 2.79663 2.7641 
2.72866 2.62243 2.66214 2.70085 2.73845 2.77478 2.80946 2.8417 2.86991 
2.89142 2.90256 2.90026 2.88567 2.86835 2.71249 2.73835 2.81623 2.93795 
3.08221 3.22198 3.33067 3.38933 3.39342 3.35312 3.28606 3.209 2.86661 
2.9011 2.98531 3.11904 3.28647 3.45669 3.58915 3.64945 3.62952 3.5507 
3.44568 3.34034 2.66915 2.7103 2.75029 2.78903 2.82643 2.86223 2.89587 
2.92612 2.95083 2.96698 2.97203 2.967 2.96015 2.71621 2.75845 2.79914 
2.83812 2.87525 2.91023 2.94251 2.76395 2.80704 2.84799 2.88652 2.92235 
2.95504 2.98394 2.97098 2.99381 3.00859 3.0135 3.00989 3.00553 3.00795 
3.02543 3.03449 3.03394 3.02539 3.01606 2.96815 3.0122 3.11113 3.27367 
3.49018 3.7235 3.90736 3.97471 3.91118 3.76564 3.60078 3.4549 3.01649 
3.06602 3.1801 3.37943 3.66556 3.99807 3.02133 3.06619 3.18388 3.4084 
3.75703 4.19562 4.2714 4.35262 4.2146 3.96697 3.72363 3.53293 4.57917 
4.67587 4.43826 4.0765 3.76453 3.54675 3.00552 2.94094 2.8851 2.84394 
2.82243 2.82331 2.84611 2.88741 2.94215 3.00469 3.06894 3.12742 3.17057 
3.18804 3.17318 3.12792 3.06256 2.99028 2.92125 2.86048 2.80858 2.7637 
2.72324 2.68494 2.64716 3.13385 3.06788 3.01556 2.97999 2.96338 2.96683 
2.9899 3.03078 3.08664 3.15389 3.22763 3.30003 3.24862 3.17586 3.12326 
3.09067 3.07771 3.08397 3.10874 3.15098 3.20923 3.28135 3.36347 3.44779 
3.35882 3.38843 3.37701 3.32543 3.24756 3.16081 3.07768 3.00371 2.9394 
2.88281 2.83141 2.783 2.73603 3.51989 3.55927 3.54892 3.48922 3.3987 
3.29972 3.20676 3.12498 3.05372 2.99022 2.93167 2.87595 2.82173 3.34108 
3.25928 3.20538 3.17525 3.16587 3.17535 3.2025 3.24652 3.30659 3.38134 
3.46746 3.55717 3.39912 3.31177 3.25947 3.23374 3.22916 3.24263 3.40896 
3.32753 3.28414 3.26711 3.26972 3.28835 3.27249 3.31789 3.37815 3.45195 
3.53588 3.62198 3.32121 3.3674 3.42611 3.49571 3.57234 3.64789 3.63494 
3.67777 3.66595 3.60009 3.50225 3.39829 3.30365 3.22197 3.15057 3.08546 
3.02363 2.96333 2.90372 3.69483 3.73236 3.7163 3.64816 3.5509 3.45187 
3.70817 3.73445 3.71223 3.64394 3.55217 3.46588 3.36619 3.29435 3.2304 
3.16904 3.10755 3.04509 2.98173 3.3991 3.34624 3.29625 3.24281 3.18431 
3.12146 3.05559 2.81285 2.8567 2.89768 2.93537 2.9693 2.99892 3.02343 
3.04172 3.05235 3.05375 3.04513 3.02794 3.00823 2.99966 3.02679 3.12625 
3.33948 3.69253 4.15786 4.57749 4.6666 4.37299 3.97425 3.6649 3.47091 
2.86345 2.90816 2.94918 2.98593 3.01783 3.04419 3.06419 3.07674 3.08057 
3.07437 3.05745 3.03076 2.99874 2.91636 2.96219 3.00345 3.03943 3.06947 
3.09285 3.10877 3.11629 3.11431 3.10175 3.07791 3.0432 3.00042 2.97218 
2.972 3.03091 3.18489 3.45026 3.79124 4.07473 4.10192 3.86762 3.58981 
3.40096 3.30193 2.957 2.9277 2.9346 2.99698 3.10946 3.22422 3.25925 
3.17202 3.0502 3.0016 3.0241 3.07382 2.97218 3.01954 3.0614 3.09694 
3.12545 3.1463 3.15882 3.16226 3.15579 3.13854 3.10987 3.06975 3.01968 
3.03151 3.08098 3.12388 3.15932 3.18665 3.20539 3.21512 3.09503 3.1473 
3.19172 3.22733 3.25365 3.27048 3.27776 3.21537 3.20561 3.18524 3.15372 
3.11082 3.05703 3.27541 3.26322 3.24087 3.208 3.16434 3.10972 2.96383 
2.91012 2.86797 2.83816 2.79666 2.69129 2.48496 2.26313 2.22918 2.41244 
2.65324 2.85247 2.9939 2.92369 2.84613 2.75048 2.60638 2.36935 3.04401 
2.96609 2.87115 2.7461 2.56692 2.30927 2.03275 1.74095 1.75251 2.05933 
2.42036 2.70674 1.99215 1.74895 1.77096 2.04584 2.38514 2.67043 3.16353 
3.21949 3.26588 3.30173 3.32684 3.34155 3.34634 3.34157 3.32737 3.30371 
3.27041 3.22726 3.1739 3.23808 3.29892 3.34768 3.38337 3.40647 3.41825 
3.42 3.32015 3.38764 3.43903 3.47339 3.49263 3.49979 3.49738 3.41258 
3.39644 3.37169 3.33836 3.29639 3.24559 3.48679 3.46852 3.44268 3.40933 
3.36868 3.32102 3.41141 3.48848 3.54257 3.57295 3.58481 3.58456 3.57641 
3.51247 3.60412 3.66065 3.68192 3.61799 3.73153 3.78983 3.79415 3.68059 
3.66918 3.65378 3.7727 3.74721 3.72445 3.56203 3.54153 3.51457 3.48105 
3.44149 3.39689 3.63547 3.61313 3.58539 3.70337 3.68067 3.65331 3.55167 
3.51279 3.47079 3.61989 3.58152 3.5417 3.10948 3.03177 2.93558 2.81121 
2.64593 2.43499 2.20815 2.05403 2.07135 2.25356 2.49986 2.72821 3.18523 
3.11344 3.02659 2.91948 2.78812 2.63745 3.26625 3.20351 3.1309 3.04635 
2.94998 2.84842 2.49303 2.40383 2.41417 2.52133 2.67898 2.83991 2.75875 
2.70611 2.71023 2.77013 2.86514 2.97034 3.34819 3.29563 3.23849 3.17594 
3.10881 3.04193 3.428 3.38579 3.34394 3.50468 3.47314 3.44662 3.30124 
3.25726 3.21413 3.42221 3.397 3.37027 2.98528 2.95161 2.95022 2.98111 
3.03507 3.09945 3.17698 3.15249 3.14572 3.34425 3.32291 3.30996 3.15742 
3.18385 3.21888 3.30707 3.31344 3.32654 3.36117 3.3045 3.28061 3.27803 
3.29077 3.31592 3.35214 3.39873 3.45482 3.5185 3.58564 3.64851 3.69489 
3.70994 3.68264 3.61554 3.53083 3.46058 3.41769 3.3878 3.35401 3.30972 
3.25512 3.19268 3.12503 3.25938 3.24806 3.25423 3.27139 3.29679 3.32951 
3.36937 3.41624 3.46945 3.52713 3.58538 3.63744 3.12573 3.17269 3.21484 
3.25427 3.29327 3.33377 3.3772 3.42428 3.47484 3.52741 3.57876 3.62352 
3.67348 3.68221 3.65538 3.59529 3.5224 3.46876 3.44535 3.43241 3.41022 
3.37252 3.3208 3.25865 3.18952 3.65432 3.6631 3.64433 3.60045 3.54766 
3.51017 3.49537 3.48679 3.46754 3.43184 3.38098 3.31854 3.24807 2.99657 
3.09915 3.17498 3.23488 3.28609 3.33334 3.37964 3.42666 3.47485 3.52336 
3.56986 3.61046 2.90825 3.04752 3.14654 3.22083 3.28057 3.33229 2.88048 
3.02984 3.13723 3.21739 3.28058 3.33368 3.38011 3.42642 3.47225 3.51738 
3.56036 3.59864 3.38116 3.42573 3.46882 3.5107 3.55065 3.58711 3.64004 
3.6533 3.64704 3.62356 3.59325 3.56975 3.55678 3.54471 3.52246 3.48533 
3.43387 3.37081 3.2993 3.62887 3.64777 3.65351 3.64752 3.63507 3.62223 
3.61799 3.64124 3.6556 3.66143 3.66063 3.6552 3.61026 3.5943 3.56827 
3.52909 3.47687 3.41354 3.34161 3.64503 3.62757 3.59971 3.55971 3.50767 
3.44496 3.37353 2.91012 3.04698 3.14905 3.22668 3.28812 3.33931 3.38436 
3.42595 3.4656 3.50389 3.54059 3.57483 2.9794 3.09149 3.17915 3.24795 
3.30333 3.34973 3.06872 3.15298 3.22223 3.2786 3.32507 3.36454 3.39044 
3.42776 3.46312 3.4972 3.53004 3.56118 3.39936 3.43129 3.46152 3.49066 
3.51889 3.54596 3.16385 3.22232 3.27274 3.31536 3.35149 3.38273 3.25665 
3.29309 3.32611 3.34337 3.3614 3.37902 3.35515 3.38055 3.40302 3.39542 
3.4104 3.42409 3.4106 3.4363 3.46068 3.48422 3.5071 3.52919 3.42337 
3.44229 3.4603 3.43675 3.44866 3.46 3.4777 3.49461 3.51097 3.47089 
3.48135 3.49136 3.60529 3.6306 3.64967 3.66209 3.66794 3.66725 3.65924 
3.64229 3.6147 3.57555 3.52496 3.46393 3.39404 3.58978 3.61484 3.63534 
3.65044 3.6594 3.66138 3.57132 3.59419 3.61367 3.62878 3.63846 3.64154 
3.65528 3.63981 3.61383 3.57674 3.52863 3.47022 3.40279 3.63679 3.62299 
3.59916 3.56473 3.51967 3.46449 3.40018 3.55013 3.56936 3.58611 3.59946 
3.6083 3.61138 3.52656 3.54105 3.55389 3.50086 3.50977 3.5179 3.56436 
3.57143 3.57382 3.52481 3.52965 3.53111 3.60738 3.59505 3.57338 3.54173 
3.49991 3.44819 3.38741 3.57014 3.55903 3.53935 3.52763 3.51763 3.4998 
3.51033 3.47163 3.42339 3.36625 3.47321 3.43742 3.39248 3.33891 3.70636 
3.84558 3.90493 3.88798 3.84561 3.80843 3.78159 3.761 3.74087 3.71631 
3.68482 3.64779 3.61062 3.58027 3.56092 3.55107 3.54469 3.53528 3.51952 
3.49825 3.475 3.45383 3.43763 3.42746 3.42287 3.73874 3.88857 3.9495 
3.92624 3.87914 3.84161 3.81788 3.80268 3.78914 3.7711 3.74501 3.7124 
3.68088 3.69824 3.83253 3.89623 3.8924 3.86445 3.84074 3.82754 3.82188 
3.81825 3.81083 3.79574 3.7746 3.7568 3.66069 3.65758 3.66778 3.68022 
3.68379 3.67318 3.6497 3.61854 3.58547 3.55489 3.52916 3.50897 3.75547 
3.777 3.81329 3.84577 3.8578 3.84367 3.80819 3.76079 3.71026 3.66254 
3.62067 3.58563 3.61479 3.72597 3.79174 3.81315 3.81234 3.80806 3.80757 
3.81127 3.81702 3.82214 3.8249 3.82749 3.83934 3.52279 3.61664 3.68261 
3.72054 3.73987 3.75055 3.758 3.43638 3.51883 3.58336 3.62898 3.65873 
3.67621 3.68319 3.76436 3.77181 3.78512 3.81082 3.85412 3.92014 3.68079 
3.67478 3.68275 3.7312 3.83398 3.98275 3.8737 3.93485 4.00714 4.06109 
4.07357 4.04202 3.98021 3.90542 3.83035 3.76187 3.70265 3.65299 4.01573 
4.13876 4.26242 4.34062 4.34133 4.27204 4.16674 4.37466 4.56791 4.67529 
4.6494 4.51899 4.16517 4.05033 3.9438 3.85154 3.77424 3.71043 4.34928 
4.18526 4.044 3.92769 3.83328 3.75674 3.3574 3.43194 3.49403 3.54207 
3.57568 3.59401 3.59452 3.57467 3.54082 3.52617 3.59228 3.76984 4.02062 
3.28404 3.35255 3.41192 3.46022 3.49532 3.51378 3.50988 3.21397 3.27749 
3.33437 3.3828 3.42031 3.44299 3.44518 3.47758 3.42177 3.38738 3.47236 
3.72416 4.06162 3.42203 3.38147 3.37345 3.49955 3.79648 4.15572 3.14501 
3.20402 3.25873 3.308 3.35013 3.38261 3.40288 3.07513 3.12946 3.18193 
3.23249 3.00233 3.051 3.10036 3.15169 3.28079 3.32647 3.37056 3.20613 
3.26496 3.33112 3.412 3.42551 3.49138 3.68 3.98953 4.30277 3.41944 
3.49236 3.62736 3.41213 3.52389 3.68972 3.86103 4.16065 4.40628 3.92139 
4.1776 4.36433 4.30234 4.59732 4.86283 4.9994 4.93704 4.73562 4.50138 
4.29188 4.12091 3.98503 3.87712 3.79065 4.40693 4.74329 5.03652 5.17907 
5.09083 4.84973 4.48589 4.78027 5.02195 5.12944 5.04227 4.822 4.58245 
4.35055 4.16494 4.01909 3.90382 3.81146 4.57338 4.35263 4.17249 4.02865 
3.91332 3.81965 4.54309 4.73188 4.87583 4.92902 4.8563 4.6896 4.54409 
4.62816 4.68589 4.44795 4.47999 4.49327 4.69556 4.63651 4.52 4.48232 
4.43615 4.35709 4.49245 4.30722 4.14864 4.01701 3.90804 3.81714 4.37723 
4.23449 4.10461 4.25843 4.15406 4.05268 3.99088 3.89234 3.807 3.95809 
3.8714 3.7928 2.92474 2.96579 3.01009 3.06054 3.11966 3.1895 3.27261 
3.37399 3.50239 3.66717 3.86548 4.0639 4.20842 2.84092 2.87125 2.90727 
2.9541 3.01583 3.09447 3.19048 2.7505 2.76578 2.78891 2.82841 2.89074 
2.97747 3.08554 3.30441 3.4378 3.59075 3.7554 3.91026 4.02855 3.21009 
3.34667 3.49058 3.63388 3.76398 3.8679 2.65518 2.65032 2.65468 2.6822 
2.74359 2.83978 2.96235 2.56026 2.53089 2.5105 2.52108 2.47543 2.42127 
2.37383 2.36462 2.58051 2.68902 2.82999 2.42145 2.54371 2.70417 3.09977 
3.24261 3.38393 3.51731 3.63573 3.73297 2.98359 3.13599 3.27965 2.87392 
3.0359 3.18312 3.41014 3.5241 3.61904 3.31329 3.42565 3.52003 2.41278 
2.34159 2.27431 2.2494 2.30291 2.43362 2.6058 2.38064 2.30762 2.23792 
2.20978 2.37722 2.3173 2.26227 2.24325 2.25902 2.38456 2.55117 2.28766 
2.39524 2.5397 2.3913 2.35178 2.31838 2.31279 2.40941 2.38995 2.37631 
2.38238 2.42202 2.41855 2.42488 2.43283 2.41973 2.43408 2.44407 2.46383 
2.35273 2.43874 2.55485 2.41881 2.48659 2.57712 2.46801 2.49602 2.5226 
2.59355 2.54165 2.59865 2.78423 2.95038 3.09816 3.22689 3.33743 3.43099 
2.72391 2.88442 3.02677 2.69279 2.83784 2.96839 3.15059 3.25722 3.34837 
3.08327 3.18329 3.26987 2.68163 2.80559 2.92014 2.67841 2.78067 2.87798 
2.67386 2.66307 2.75697 2.83816 2.73069 2.79804 3.02303 3.11412 3.19418 
2.96754 3.04839 3.12061 2.91464 2.86271 2.98503 3.04889 2.92324 2.97892 
4.2801 4.30628 4.31142 4.29968 4.26808 4.21719 4.15214 4.07905 4.00254 
3.92547 3.84992 3.77777 4.09998 4.13527 4.14849 4.14638 4.13078 4.10284 
3.94014 3.98461 4.00899 4.0195 4.01992 4.012 4.06417 4.01627 3.96031 
3.89781 3.8313 3.76411 3.99547 3.96848 3.92918 3.87774 3.81722 3.75264 
3.80641 3.85796 3.89244 3.91533 3.93109 3.94164 3.69426 3.75151 3.79471 
3.59714 3.65909 3.70974 3.82907 3.85944 3.88784 3.75438 3.79835 3.84406 
3.94511 3.93642 3.91047 3.86614 3.80771 3.74261 3.91083 3.91949 3.90417 
3.88701 3.91356 3.90687 3.86233 3.80107 3.73176 3.86234 3.79285 3.71593 
3.50917 3.57447 3.63086 3.6837 3.73875 3.79919 3.42596 3.49265 3.55223 
3.34482 3.41051 3.47026 3.60983 3.671 3.73925 3.52835 3.58926 3.6555 
3.26451 3.32696 3.38406 3.18489 3.24244 3.29491 3.10638 3.02952 3.1581 
3.20499 3.07521 3.11636 3.43889 3.49433 3.55119 3.3442 3.39174 3.43715 
3.24799 3.15333 3.28759 3.32302 3.18614 3.21404 3.86052 3.90462 3.90502 
3.85415 3.77375 3.68876 3.81053 3.86483 3.86966 3.72272 3.77281 3.77801 
3.81553 3.73031 3.64306 3.7306 3.65443 3.57533 3.60487 3.642 3.64536 
3.4765 3.50153 3.50338 3.3515 3.2353 3.36847 3.36976 3.24755 3.24892 
3.6107 3.55267 3.48922 3.48026 3.4399 3.39298 3.35482 3.23941 3.32765 
3.29426 3.2212 3.19769 3.42257 3.42511 3.42927 3.43422 3.43945 3.44471 
3.44985 3.45476 3.45936 3.46354 3.46723 3.4704 3.47317 3.47581 3.4786 
3.48161 3.4842 3.48496 3.48196 3.47325 3.45726 3.43296 3.39984 3.35793 
3.3077 3.49389 3.48303 3.47539 3.47009 3.46643 3.46383 3.46183 3.46 
3.45798 3.45546 3.45222 3.44822 3.55716 3.53441 3.51634 3.50195 3.49031 
3.48058 3.47201 3.46388 3.45557 3.44655 3.43646 3.42521 3.44374 3.43945 
3.43637 3.43532 3.43605 3.43683 3.43503 3.42808 3.41411 3.392 3.36131 
3.3221 3.27486 3.41317 3.40145 3.39201 3.38693 3.38655 3.38851 3.38892 
3.38433 3.37256 3.35255 3.32399 3.28708 3.24237 3.61208 3.57864 3.55137 
3.52898 3.51031 3.49427 3.47983 3.46601 3.45195 3.4369 3.42038 3.40223 
3.65808 3.61516 3.57985 3.55055 3.52585 3.5044 3.69445 3.64343 3.60135 
3.56628 3.53658 3.51071 3.48493 3.4662 3.44711 3.42677 3.40463 3.38058 
3.48714 3.46442 3.44124 3.4166 3.39004 3.36171 3.38286 3.36374 3.34791 
3.3391 3.33858 3.34287 3.34631 3.3444 3.33479 3.3166 3.28974 3.25462 
3.2119 3.35512 3.33 3.30902 3.2975 3.2975 3.30435 3.33251 3.30446 
3.2816 3.26938 3.26982 3.27766 3.31055 3.31083 3.3028 3.28583 3.2601 
3.22615 3.18475 3.28481 3.28577 3.27821 3.2616 3.23622 3.20272 3.16193 
3.72058 3.66318 3.61572 3.57607 3.54245 3.51318 3.48657 3.46094 3.43478 
3.40705 3.3775 3.3468 3.73637 3.67456 3.6232 3.58018 3.54374 3.51215 
3.74252 3.67832 3.62455 3.57934 3.54112 3.50826 3.48361 3.45626 3.42843 
3.39904 3.36805 3.33676 3.47894 3.45116 3.4231 3.39362 3.36285 3.33257 
3.74063 3.67588 3.62102 3.57469 3.53566 3.50251 3.73305 3.66911 3.61425 
3.72234 3.66004 3.60592 3.56771 3.52869 3.49604 3.55986 3.52147 3.48986 
3.47346 3.44646 3.41957 3.39161 3.36278 3.33496 3.4681 3.44282 3.41823 
3.46353 3.44047 3.41873 3.3931 3.36757 3.34337 3.39709 3.37554 3.35544 
3.31655 3.28922 3.26831 3.2577 3.25814 3.26476 3.27051 3.27035 3.26198 
3.24476 3.21893 3.1851 3.14413 3.30758 3.28333 3.26656 3.25885 3.25928 
3.26373 3.30574 3.28529 3.27281 3.26798 3.2687 3.27134 3.26682 3.26442 
3.25432 3.23573 3.2087 3.17379 3.13183 3.2719 3.26713 3.255 3.2346 
3.20581 3.1691 3.12532 3.31125 3.2944 3.28528 3.28259 3.28367 3.28524 
3.32324 3.30952 3.30271 3.33899 3.32799 3.32285 3.30133 3.30274 3.30398 
3.32239 3.32439 3.32621 3.28409 3.27752 3.26363 3.24134 3.2104 3.17121 
3.12472 3.30219 3.29482 3.27983 3.32507 3.31822 3.30315 3.25588 3.22251 
3.18015 3.12999 3.27801 3.24203 3.19575 3.1408 3.71075 3.65028 3.59726 
3.55212 3.51476 3.48446 3.45983 3.43897 3.42002 3.40176 3.38405 3.36783 
3.69965 3.64059 3.58863 3.54455 3.50836 3.47936 3.68913 3.6306 3.57931 
3.53614 3.50102 3.47311 3.45622 3.43715 3.42043 3.4049 3.3903 3.37724 
3.45104 3.43317 3.41792 3.40423 3.39179 3.381 3.678 3.61882 3.56758 
3.52501 3.49069 3.46356 3.66386 3.60292 3.5512 3.64327 3.58012 3.52782 
3.5089 3.47513 3.44848 3.48574 3.4524 3.42607 3.44214 3.42489 3.41039 
3.39771 3.38653 3.37715 3.42737 3.4103 3.39601 3.40508 3.38794 3.37354 
3.38369 3.37307 3.3644 3.36118 3.35062 3.34212 3.61208 3.54766 3.49548 
3.45399 3.42126 3.3953 3.56657 3.50354 3.45303 3.50536 3.44733 3.40048 
3.41301 3.38131 3.35596 3.36302 3.33298 3.30859 3.43066 3.38054 3.33905 
3.34716 3.30609 3.27079 3.25977 3.17213 3.22726 3.19809 3.14684 3.12312 
3.30512 3.27734 3.25429 3.24098 3.21586 3.19446 3.1725 3.10148 3.15019 
3.13063 3.08192 3.06422 3.3744 3.35713 3.34249 3.32986 3.31907 3.31034 
3.33528 3.31795 3.30307 3.28836 3.27113 3.25612 3.29012 3.27895 3.26973 
3.24288 3.23127 3.22142 3.23478 3.21785 3.20286 3.17591 3.15949 3.14467 
3.11321 3.04803 3.09745 3.08294 3.03304 3.01896 3.18942 3.1774 3.16687 
3.13115 3.11879 3.10761 3.06946 3.00562 3.05686 3.04512 2.99289 2.98072 
3.35473 3.34615 3.34255 3.34322 3.3465 3.3501 3.3512 3.34653 3.33273 
3.30708 3.26836 3.21729 3.15625 3.36692 3.36048 3.35853 3.36083 3.36633 
3.37308 3.37278 3.36816 3.36792 3.37228 3.38074 3.39172 3.37815 3.37754 
3.36665 3.34138 3.2998 3.24297 3.1745 3.4022 3.40736 3.40096 3.37702 
3.33253 3.26913 3.19214 3.37035 3.36712 3.3684 3.37481 3.38632 3.40174 
3.35838 3.35598 3.35827 3.3363 3.33409 3.33658 3.36612 3.37985 3.39862 
3.34473 3.359 3.37874 3.41808 3.42973 3.4287 3.40675 3.35953 3.28942 
3.20388 3.41953 3.43647 3.44 3.4011 3.41987 3.42506 3.4199 3.37061 
3.29518 3.203 3.40562 3.35549 3.278 3.1834 3.30422 3.30156 3.30332 
3.31036 3.3231 3.3408 3.26293 3.25923 3.2594 3.21368 3.20854 3.20653 
3.26408 3.27342 3.28651 3.20799 3.21279 3.21983 3.15806 3.15128 3.14681 
3.09773 3.0893 3.0824 3.03428 2.96906 3.02434 3.01526 2.95786 2.94697 
3.14473 3.14466 3.14546 3.07691 3.07232 3.06755 3.00679 2.93609 2.99839 
2.98911 2.92472 2.91206 3.36067 3.37672 3.37959 3.35905 3.30959 3.23426 
3.14251 3.3006 3.31034 3.30784 3.22656 3.2285 3.21963 3.28494 3.23734 
3.16746 3.08279 3.1941 3.14897 3.08591 3.01028 3.14489 3.13945 3.12486 
3.06074 3.04932 3.03036 2.97749 2.89701 2.96171 2.93981 2.8783 2.85465 
3.0972 3.05462 2.99823 2.9316 3.00138 2.96122 2.91063 2.85192 2.91024 