# vtk DataFile Version 3.0
vtk output
ASCII
DATASET UNSTRUCTURED_GRID
POINTS 12 float
0. 0. 0.
0. 0. 1.
0. 1. 1.
0. 1. 0.
1. 0. 0.
1. 0. 1.
1. 1. 1.
1. 1. 0.
2. 0. 0.
2. 0. 1.
2. 1. 1.
2. 1. 0.

CELLS 11 41
8 0 1 2 3 4 5 6 7
4 8 9 10 11
2 4 8
2 5 9
2 6 10
2 7 11
1 0
1 1
1 2
1 3
6 4 5 8 9 7 6

CELL_TYPES 11
12
9
3
3
3
3
1
1
1
1
6

CELL_DATA 11
SCALARS t float
LOOKUP_TABLE default
0 
1
2
2
2
2
3
3
3
3
4
