# vtk DataFile Version 3.0
vtk output
ASCII
DATASET RECTILINEAR_GRID
FIELD FieldData 5
MeshCoordType 1 1 int
2
MeshName 1 1 string
rectmesh2d
CYCLE 1 1 int
10
TIME 1 1 double
10.0
VisItExpressions 1 2 string
vel;vector;{u,v}
speed;scalar;sqrt(u*u+v*v)

DIMENSIONS 5 4 1
X_COORDINATES 5 float
0 1 2 3 4
Y_COORDINATES 4 float
0 1 2 3
Z_COORDINATES 1 float
0

CELL_DATA 12
SCALARS density float 1
LOOKUP_TABLE default
1 2 3 4
5 6 7 8
9 10 11 12

FIELD FieldData 1
avtGhostZones 1 12 unsigned_char
1 0 0 1
1 0 0 1
1 0 0 1

POINT_DATA 20
SCALARS u float 1
LOOKUP_TABLE default
1 2 3 4 5 1 2 3 4 5
1 2 3 4 5 1 2 3 4 5
SCALARS v float 1
LOOKUP_TABLE default
1 1 1 1 1 2 2 2 2 2
3 3 3 3 3 4 4 4 4 4
