# vtk DataFile Version 3.0
vtk output
ASCII
DATASET POLYDATA
POINTS 6 float
 0  0 -5
 0  0  5
 0 -5  0
 0  5  0
-5  0  0
 5  0  0

LINES 3 9
2 0 1
2 2 3
2 4 5

CELL_DATA 3
FIELD FieldData 1
var1 1 3 float
1. 2. 3.

POINT_DATA 6
FIELD FieldData 2
var2 1 6 float
0.5 0.5 1 1 1.5 1.5
var3 1 6 float
0.05 1 0.05 1 0.05 1
