# vtk DataFile Version 3.0
vtk output
ASCII
DATASET POLYDATA
POINTS 6 float
 0  0 -5
 0  0  5
 0 -5  0
 0  5  0
-5  0  0
 5  0  0

LINES 3 9
2 0 1
2 2 3
2 4 5

CELL_DATA 3
SCALARS var1 float 1
LOOKUP_TABLE default
1 2 3

POINT_DATA 6
SCALARS var2 float 1
LOOKUP_TABLE default
0.5 0.5 1 1 1.5 1.5
SCALARS var3 float 1
LOOKUP_TABLE default
0.05 1 0.05 1 0.05 1
