# vtk DataFile Version 3.0
vtk output
ASCII
DATASET POLYDATA
POINTS 17 float
-5 -5  5
 0 -5  5
 5 -5  5
 0  0 -5
 0  0  5
 0 -5  0
 0  5  0
-5  0  0
 5  0  0
-5 -5 -5
-5  5 -5
 5  5 -5
 5 -5 -5
-5 -5 -5
 5 -5 -5
-5 -5  5
 5 -5  5

VERTICES 3 6
1 0
1 1
1 2

LINES 3 9
2 3 4
2 5 6
2 7 8

POLYGONS 1 5
4 9 10 11 12

TRIANGLE_STRIPS 1 5
4 13 14 15 16

CELL_DATA 8
FIELD FieldData 1
var1 1 8 float
1 2 3 4 5 6 7 8

POINT_DATA 17
FIELD FieldData 2
var2 1 17 float
0 0 0 0.5 0.5 1 1 1.5 1.5 2 2 2 2 3 3 3 3
var3 1 17 float
0 0 0 0.05 1 0.05 1 0.05 1 0.5 0.5 1 1 0.5 1 0.5 1
