# vtk DataFile Version 3.0
vtk output
ASCII
DATASET STRUCTURED_POINTS
DIMENSIONS 3 2 1
ORIGIN 0 0 0
SPACING 1 1 1

CELL_DATA 2
SCALARS var1 float 1
LOOKUP_TABLE default
1 2

POINT_DATA 6
SCALARS var2 float 1
LOOKUP_TABLE default
1 2 3 1 2 3
SCALARS var3 float 1
LOOKUP_TABLE default
1 1 1 2 2 2
VECTORS vec1 float
0 1 0
0 1 0
0 1 0
0 2 0
0 2 0
0 2 0
TENSORS ten1 float
1 0 0
0 1 0
0 0 1
1 0 0
0 1 0
0 0 1
1 0 0
0 1 0
0 0 1
2 0 0
0 2 0
0 0 2
2 0 0
0 2 0
0 0 2
2 0 0
0 2 0
0 0 2
