# vtk DataFile Version 3.0
vtk output
ASCII
DATASET STRUCTURED_GRID
DIMENSIONS 3 2 2
POINTS 12 float
0 0 0
1 1 0
2 1 0
0 1 0
1 2 0
2 2 0
0 0 1
1 1 1
2 1 1
0 1 1
1 2 1
2 2 1

CELL_DATA 2
SCALARS var1 float 1
LOOKUP_TABLE default
1 2

POINT_DATA 12
SCALARS var2 float 1
LOOKUP_TABLE default
1 2 3 1 2 3 1 2 3 1 2 3
SCALARS var3 float 1
LOOKUP_TABLE default
1 1 1 2 2 2 1 1 1 2 2 2
VECTORS vec1 float
0 1 0
0 1 0
0 1 0
0 2 0
0 2 0
0 2 0
0 1 0
0 1 0
0 1 0
0 2 0
0 2 0
0 2 0
TENSORS ten1 float
1 0 0
0 1 0
0 0 1
1 0 0
0 1 0
0 0 1
1 0 0
0 1 0
0 0 1
2 0 0
0 2 0
0 0 2
2 0 0
0 2 0
0 0 2
2 0 0
0 2 0
0 0 2
1 0 0
0 1 0
0 0 1
1 0 0
0 1 0
0 0 1
1 0 0
0 1 0
0 0 1
2 0 0
0 2 0
0 0 2
2 0 0
0 2 0
0 0 2
2 0 0
0 2 0
0 0 2
