# vtk DataFile Version 3.0
vtk output
ASCII
DATASET UNSTRUCTURED_GRID
POINTS 48 float
0 0 0
1 0 0
2 0 0
3 0 0
4 0 0
0 1 0
1 1 0
2 1 0
3 1 0
4 1 0
0 2 0
1 2 0
2 2 0
3 2 0
4 2 0
0 3 0
1 3 0
0 4 0
0 5 0
1 4 0
0 4 1
1 4 0
2 4 0
1 4 1
2 4 1
1 5 0
2 5 0
1 5 1
2 5 1
2 4 0
3 4 0
3 4 1
2 4 1
2 5 0
3 5 0
3 5 1
2 5 1
3 4 0
3 4 1
3 5 0
4 4 0
4 4 1
4 5 0
4 4 0
5 4 0
5 4 1
4 4 1
4 5 0

CELLS 17 82
1 0
1 1
3 2 3 4
2 5 6
2 6 7
3 7 8 9
3 5 10 6
3 10 6 11
4 6 11 7 12
4 7 12 13 8
4 8 9 13 14
4 10 15 16 11
4 17 18 19 20
8 21 22 23 24 25 26 27 28
8 29 30 31 32 33 34 35 36
6 37 38 39 40 41 42
5 43 44 45 46 47

CELL_TYPES 17
1
1
2
3
3
4
5
5
6
7
8
9
10
11
12
13
14

CELL_DATA 17
SCALARS density float 1
LOOKUP_TABLE default
1 1 2 3 3 4 5 5 6 7 8 9 10 11 12 13 14
